Created for LUXFOA 

        1264 atoms
        1728 bonds
        3648 angles
        3456 dihedrals
        2016 impropers

           5 atom types
           7 bond types
          13 angle types
           3 dihedral types
           1 improper types
           0.000000  52.582000 xlo xhi
           0.000000  26.291000 ylo yhi
           0.000000  26.291000 zlo zhi
           0.000000   0.000000   0.000000 xy xz yz

Masses

    1    15.999400000 # O_2
    2    14.006700000 # N_R
    3    12.010700000 # C_R
    4    54.938045000 # Mn8f4
    5     1.007940000 # H_

Bond Coeffs

    1      714.557442        1.269010  # O_2 C_R
    2      165.985932        2.236110  # O_2 Mn8f4
    3      663.718927        1.345073  # N_R C_R
    4      206.662320        2.149609  # N_R Mn8f4
    5      391.669513        1.458000  # C_R C_R
    6      462.655054        1.379256  # C_R C_R
    7      357.440381        1.081418  # C_R H_

Angle Coeffs

    1              cosine/periodic      124.920423              -1               3 # C_R O_2 Mn8f4
    2              cosine/periodic      240.001032              -1               3 # C_R N_R C_R
    3              cosine/periodic      129.880894              -1               3 # C_R N_R Mn8f4
    4              cosine/periodic      281.676258              -1               3 # N_R C_R C_R
    5              cosine/periodic      307.398705              -1               3 # N_R C_R C_R
    6              cosine/periodic      204.366560              -1               3 # C_R C_R C_R
    7              cosine/periodic      275.428492              -1               3 # O_2 C_R C_R
    8              cosine/periodic      413.556852              -1               3 # O_2 C_R O_2
    9              cosine/periodic      424.885146              -1               3 # N_R C_R N_R
   10              cosine/periodic      159.573934              -1               3 # N_R C_R H_
   11                      fourier       96.210299        0.343737        0.374972        0.281246 # O_2 Mn8f4 O_2
   12                      fourier      112.756340        0.343737        0.374972        0.281246 # O_2 Mn8f4 N_R
   13                      fourier      132.495416        0.343737        0.374972        0.281246 # N_R Mn8f4 N_R

Dihedral Coeffs

    1        2.245703              -1               2 # Mn8f4 O_2 C_R O_2
    2        1.497136              -1               2 # C_R N_R C_R C_R
    3        0.555556              -1               2 # N_R C_R C_R O_2

Improper Coeffs

    1        2.000000        1.000000       -1.000000        0.000000               0 # C_R N_R C_R Mn8f4

Pair Coeffs

    1        0.060000        3.118146 # O_2 O_2
    2        0.069000        3.260689 # N_R N_R
    3        0.105000        3.430851 # C_R C_R
    4        0.013000        2.637951 # Mn8f4 Mn8f4
    5        0.044000        2.571134 # H_ H_

Atoms

       1      444        1     0.00000    3.99623    7.84786    2.91041
       2      444        1     0.00000    5.03473    6.56749    1.44863
       3      444        1     0.00000    3.99623   20.99336   16.05591
       4      444        1     0.00000    5.03473   19.71299   14.59413
       5      444        1     0.00000   17.14173    7.84786   16.05591
       6      444        1     0.00000   18.18023    6.56749   14.59413
       7      444        1     0.00000   17.14173   20.99336    2.91041
       8      444        1     0.00000   18.18023   19.71299    1.44863
       9      444        1     0.00000   22.29477   18.44314    2.91041
      10      444        1     0.00000   21.25627   19.72351    1.44863
      11      444        1     0.00000   22.29477    5.29764   16.05591
      12      444        1     0.00000   21.25627    6.57801   14.59413
      13      444        1     0.00000    9.14927   18.44314   16.05591
      14      444        1     0.00000    8.11077   19.72351   14.59413
      15      444        1     0.00000    9.14927    5.29764    2.91041
      16      444        1     0.00000    8.11077    6.57801    1.44863
      17      444        1     0.00000   22.29477    7.84786   23.38059
      18      444        1     0.00000   21.25627    6.56749   24.84237
      19      444        1     0.00000   22.29477   20.99336   10.23509
      20      444        1     0.00000   21.25627   19.71299   11.69687
      21      444        1     0.00000    9.14927    7.84786   10.23509
      22      444        1     0.00000    8.11077    6.56749   11.69687
      23      444        1     0.00000    9.14927   20.99336   23.38059
      24      444        1     0.00000    8.11077   19.71299   24.84237
      25      444        1     0.00000    3.99623   18.44314   23.38059
      26      444        1     0.00000    5.03473   19.72351   24.84237
      27      444        1     0.00000    3.99623    5.29764   10.23509
      28      444        1     0.00000    5.03473    6.57801   11.69687
      29      444        1     0.00000   17.14173   18.44314   10.23509
      30      444        1     0.00000   18.18023   19.72351   11.69687
      31      444        1     0.00000   17.14173    5.29764   23.38059
      32      444        1     0.00000   18.18023    6.57801   24.84237
      33      444        1     0.00000    2.91041    3.99623    7.84786
      34      444        1     0.00000    1.44863    5.03473    6.56749
      35      444        1     0.00000    2.91041   17.14173   20.99336
      36      444        1     0.00000    1.44863   18.18023   19.71299
      37      444        1     0.00000   16.05591    3.99623   20.99336
      38      444        1     0.00000   14.59413    5.03473   19.71299
      39      444        1     0.00000   16.05591   17.14173    7.84786
      40      444        1     0.00000   14.59413   18.18023    6.56749
      41      444        1     0.00000    2.91041   22.29477   18.44314
      42      444        1     0.00000    1.44863   21.25627   19.72351
      43      444        1     0.00000    2.91041    9.14927    5.29764
      44      444        1     0.00000    1.44863    8.11077    6.57801
      45      444        1     0.00000   16.05591   22.29477    5.29764
      46      444        1     0.00000   14.59413   21.25627    6.57801
      47      444        1     0.00000   16.05591    9.14927   18.44314
      48      444        1     0.00000   14.59413    8.11077   19.72351
      49      444        1     0.00000   23.38059   22.29477    7.84786
      50      444        1     0.00000   24.84237   21.25627    6.56749
      51      444        1     0.00000   23.38059    9.14927   20.99336
      52      444        1     0.00000   24.84237    8.11077   19.71299
      53      444        1     0.00000   10.23509   22.29477   20.99336
      54      444        1     0.00000   11.69687   21.25627   19.71299
      55      444        1     0.00000   10.23509    9.14927    7.84786
      56      444        1     0.00000   11.69687    8.11077    6.56749
      57      444        1     0.00000   23.38059    3.99623   18.44314
      58      444        1     0.00000   24.84237    5.03473   19.72351
      59      444        1     0.00000   23.38059   17.14173    5.29764
      60      444        1     0.00000   24.84237   18.18023    6.57801
      61      444        1     0.00000   10.23509    3.99623    5.29764
      62      444        1     0.00000   11.69687    5.03473    6.57801
      63      444        1     0.00000   10.23509   17.14173   18.44314
      64      444        1     0.00000   11.69687   18.18023   19.72351
      65      444        1     0.00000    7.84786    2.91041    3.99623
      66      444        1     0.00000    6.56749    1.44863    5.03473
      67      444        1     0.00000    7.84786   16.05591   17.14173
      68      444        1     0.00000    6.56749   14.59413   18.18023
      69      444        1     0.00000   20.99336    2.91041   17.14173
      70      444        1     0.00000   19.71299    1.44863   18.18023
      71      444        1     0.00000   20.99336   16.05591    3.99623
      72      444        1     0.00000   19.71299   14.59413    5.03473
      73      444        1     0.00000   18.44314    2.91041   22.29477
      74      444        1     0.00000   19.72351    1.44863   21.25627
      75      444        1     0.00000   18.44314   16.05591    9.14927
      76      444        1     0.00000   19.72351   14.59413    8.11077
      77      444        1     0.00000    5.29764    2.91041    9.14927
      78      444        1     0.00000    6.57801    1.44863    8.11077
      79      444        1     0.00000    5.29764   16.05591   22.29477
      80      444        1     0.00000    6.57801   14.59413   21.25627
      81      444        1     0.00000    7.84786   23.38059   22.29477
      82      444        1     0.00000    6.56749   24.84237   21.25627
      83      444        1     0.00000    7.84786   10.23509    9.14927
      84      444        1     0.00000    6.56749   11.69687    8.11077
      85      444        1     0.00000   20.99336   23.38059    9.14927
      86      444        1     0.00000   19.71299   24.84237    8.11077
      87      444        1     0.00000   20.99336   10.23509   22.29477
      88      444        1     0.00000   19.71299   11.69687   21.25627
      89      444        1     0.00000   18.44314   23.38059    3.99623
      90      444        1     0.00000   19.72351   24.84237    5.03473
      91      444        1     0.00000   18.44314   10.23509   17.14173
      92      444        1     0.00000   19.72351   11.69687   18.18023
      93      444        1     0.00000    5.29764   23.38059   17.14173
      94      444        1     0.00000    6.57801   24.84237   18.18023
      95      444        1     0.00000    5.29764   10.23509    3.99623
      96      444        1     0.00000    6.57801   11.69687    5.03473
      97      444        1     0.00000   22.29477   18.44314   23.38059
      98      444        1     0.00000   21.25627   19.72351   24.84237
      99      444        1     0.00000   22.29477    5.29764   10.23509
     100      444        1     0.00000   21.25627    6.57801   11.69687
     101      444        1     0.00000    9.14927   18.44314   10.23509
     102      444        1     0.00000    8.11077   19.72351   11.69687
     103      444        1     0.00000    9.14927    5.29764   23.38059
     104      444        1     0.00000    8.11077    6.57801   24.84237
     105      444        1     0.00000    3.99623    7.84786   23.38059
     106      444        1     0.00000    5.03473    6.56749   24.84237
     107      444        1     0.00000    3.99623   20.99336   10.23509
     108      444        1     0.00000    5.03473   19.71299   11.69687
     109      444        1     0.00000   17.14173    7.84786   10.23509
     110      444        1     0.00000   18.18023    6.56749   11.69687
     111      444        1     0.00000   17.14173   20.99336   23.38059
     112      444        1     0.00000   18.18023   19.71299   24.84237
     113      444        1     0.00000    3.99623   18.44314    2.91041
     114      444        1     0.00000    5.03473   19.72351    1.44863
     115      444        1     0.00000    3.99623    5.29764   16.05591
     116      444        1     0.00000    5.03473    6.57801   14.59413
     117      444        1     0.00000   17.14173   18.44314   16.05591
     118      444        1     0.00000   18.18023   19.72351   14.59413
     119      444        1     0.00000   17.14173    5.29764    2.91041
     120      444        1     0.00000   18.18023    6.57801    1.44863
     121      444        1     0.00000   22.29477    7.84786    2.91041
     122      444        1     0.00000   21.25627    6.56749    1.44863
     123      444        1     0.00000   22.29477   20.99336   16.05591
     124      444        1     0.00000   21.25627   19.71299   14.59413
     125      444        1     0.00000    9.14927    7.84786   16.05591
     126      444        1     0.00000    8.11077    6.56749   14.59413
     127      444        1     0.00000    9.14927   20.99336    2.91041
     128      444        1     0.00000    8.11077   19.71299    1.44863
     129      444        1     0.00000   23.38059   22.29477   18.44314
     130      444        1     0.00000   24.84237   21.25627   19.72351
     131      444        1     0.00000   23.38059    9.14927    5.29764
     132      444        1     0.00000   24.84237    8.11077    6.57801
     133      444        1     0.00000   10.23509   22.29477    5.29764
     134      444        1     0.00000   11.69687   21.25627    6.57801
     135      444        1     0.00000   10.23509    9.14927   18.44314
     136      444        1     0.00000   11.69687    8.11077   19.72351
     137      444        1     0.00000   23.38059    3.99623    7.84786
     138      444        1     0.00000   24.84237    5.03473    6.56749
     139      444        1     0.00000   23.38059   17.14173   20.99336
     140      444        1     0.00000   24.84237   18.18023   19.71299
     141      444        1     0.00000   10.23509    3.99623   20.99336
     142      444        1     0.00000   11.69687    5.03473   19.71299
     143      444        1     0.00000   10.23509   17.14173    7.84786
     144      444        1     0.00000   11.69687   18.18023    6.56749
     145      444        1     0.00000    2.91041    3.99623   18.44314
     146      444        1     0.00000    1.44863    5.03473   19.72351
     147      444        1     0.00000    2.91041   17.14173    5.29764
     148      444        1     0.00000    1.44863   18.18023    6.57801
     149      444        1     0.00000   16.05591    3.99623    5.29764
     150      444        1     0.00000   14.59413    5.03473    6.57801
     151      444        1     0.00000   16.05591   17.14173   18.44314
     152      444        1     0.00000   14.59413   18.18023   19.72351
     153      444        1     0.00000    2.91041   22.29477    7.84786
     154      444        1     0.00000    1.44863   21.25627    6.56749
     155      444        1     0.00000    2.91041    9.14927   20.99336
     156      444        1     0.00000    1.44863    8.11077   19.71299
     157      444        1     0.00000   16.05591   22.29477   20.99336
     158      444        1     0.00000   14.59413   21.25627   19.71299
     159      444        1     0.00000   16.05591    9.14927    7.84786
     160      444        1     0.00000   14.59413    8.11077    6.56749
     161      444        1     0.00000   18.44314   23.38059   22.29477
     162      444        1     0.00000   19.72351   24.84237   21.25627
     163      444        1     0.00000   18.44314   10.23509    9.14927
     164      444        1     0.00000   19.72351   11.69687    8.11077
     165      444        1     0.00000    5.29764   23.38059    9.14927
     166      444        1     0.00000    6.57801   24.84237    8.11077
     167      444        1     0.00000    5.29764   10.23509   22.29477
     168      444        1     0.00000    6.57801   11.69687   21.25627
     169      444        1     0.00000    7.84786   23.38059    3.99623
     170      444        1     0.00000    6.56749   24.84237    5.03473
     171      444        1     0.00000    7.84786   10.23509   17.14173
     172      444        1     0.00000    6.56749   11.69687   18.18023
     173      444        1     0.00000   20.99336   23.38059   17.14173
     174      444        1     0.00000   19.71299   24.84237   18.18023
     175      444        1     0.00000   20.99336   10.23509    3.99623
     176      444        1     0.00000   19.71299   11.69687    5.03473
     177      444        1     0.00000   18.44314    2.91041    3.99623
     178      444        1     0.00000   19.72351    1.44863    5.03473
     179      444        1     0.00000   18.44314   16.05591   17.14173
     180      444        1     0.00000   19.72351   14.59413   18.18023
     181      444        1     0.00000    5.29764    2.91041   17.14173
     182      444        1     0.00000    6.57801    1.44863   18.18023
     183      444        1     0.00000    5.29764   16.05591    3.99623
     184      444        1     0.00000    6.57801   14.59413    5.03473
     185      444        1     0.00000    7.84786    2.91041   22.29477
     186      444        1     0.00000    6.56749    1.44863   21.25627
     187      444        1     0.00000    7.84786   16.05591    9.14927
     188      444        1     0.00000    6.56749   14.59413    8.11077
     189      444        1     0.00000   20.99336    2.91041    9.14927
     190      444        1     0.00000   19.71299    1.44863    8.11077
     191      444        1     0.00000   20.99336   16.05591   22.29477
     192      444        1     0.00000   19.71299   14.59413   21.25627
     193      444        2     0.00000    3.38365    9.70401    1.13314
     194      444        2     0.00000    3.38365   22.84951   14.27864
     195      444        2     0.00000   16.52915    9.70401   14.27864
     196      444        2     0.00000   16.52915   22.84951    1.13314
     197      444        2     0.00000   22.90735   16.58699    1.13314
     198      444        2     0.00000   22.90735    3.44149   14.27864
     199      444        2     0.00000    9.76185   16.58699   14.27864
     200      444        2     0.00000    9.76185    3.44149    1.13314
     201      444        2     0.00000   22.90735    9.70401   25.15786
     202      444        2     0.00000   22.90735   22.84951   12.01236
     203      444        2     0.00000    9.76185    9.70401   12.01236
     204      444        2     0.00000    9.76185   22.84951   25.15786
     205      444        2     0.00000    3.38365   16.58699   25.15786
     206      444        2     0.00000    3.38365    3.44149   12.01236
     207      444        2     0.00000   16.52915   16.58699   12.01236
     208      444        2     0.00000   16.52915    3.44149   25.15786
     209      444        2     0.00000    1.13314    3.38365    9.70401
     210      444        2     0.00000    1.13314   16.52915   22.84951
     211      444        2     0.00000   14.27864    3.38365   22.84951
     212      444        2     0.00000   14.27864   16.52915    9.70401
     213      444        2     0.00000    1.13314   22.90735   16.58699
     214      444        2     0.00000    1.13314    9.76185    3.44149
     215      444        2     0.00000   14.27864   22.90735    3.44149
     216      444        2     0.00000   14.27864    9.76185   16.58699
     217      444        2     0.00000   25.15786   22.90735    9.70401
     218      444        2     0.00000   25.15786    9.76185   22.84951
     219      444        2     0.00000   12.01236   22.90735   22.84951
     220      444        2     0.00000   12.01236    9.76185    9.70401
     221      444        2     0.00000   25.15786    3.38365   16.58699
     222      444        2     0.00000   25.15786   16.52915    3.44149
     223      444        2     0.00000   12.01236    3.38365    3.44149
     224      444        2     0.00000   12.01236   16.52915   16.58699
     225      444        2     0.00000    9.70401    1.13314    3.38365
     226      444        2     0.00000    9.70401   14.27864   16.52915
     227      444        2     0.00000   22.84951    1.13314   16.52915
     228      444        2     0.00000   22.84951   14.27864    3.38365
     229      444        2     0.00000   16.58699    1.13314   22.90735
     230      444        2     0.00000   16.58699   14.27864    9.76185
     231      444        2     0.00000    3.44149    1.13314    9.76185
     232      444        2     0.00000    3.44149   14.27864   22.90735
     233      444        2     0.00000    9.70401   25.15786   22.90735
     234      444        2     0.00000    9.70401   12.01236    9.76185
     235      444        2     0.00000   22.84951   25.15786    9.76185
     236      444        2     0.00000   22.84951   12.01236   22.90735
     237      444        2     0.00000   16.58699   25.15786    3.38365
     238      444        2     0.00000   16.58699   12.01236   16.52915
     239      444        2     0.00000    3.44149   25.15786   16.52915
     240      444        2     0.00000    3.44149   12.01236    3.38365
     241      444        2     0.00000   22.90735   16.58699   25.15786
     242      444        2     0.00000   22.90735    3.44149   12.01236
     243      444        2     0.00000    9.76185   16.58699   12.01236
     244      444        2     0.00000    9.76185    3.44149   25.15786
     245      444        2     0.00000    3.38365    9.70401   25.15786
     246      444        2     0.00000    3.38365   22.84951   12.01236
     247      444        2     0.00000   16.52915    9.70401   12.01236
     248      444        2     0.00000   16.52915   22.84951   25.15786
     249      444        2     0.00000    3.38365   16.58699    1.13314
     250      444        2     0.00000    3.38365    3.44149   14.27864
     251      444        2     0.00000   16.52915   16.58699   14.27864
     252      444        2     0.00000   16.52915    3.44149    1.13314
     253      444        2     0.00000   22.90735    9.70401    1.13314
     254      444        2     0.00000   22.90735   22.84951   14.27864
     255      444        2     0.00000    9.76185    9.70401   14.27864
     256      444        2     0.00000    9.76185   22.84951    1.13314
     257      444        2     0.00000   25.15786   22.90735   16.58699
     258      444        2     0.00000   25.15786    9.76185    3.44149
     259      444        2     0.00000   12.01236   22.90735    3.44149
     260      444        2     0.00000   12.01236    9.76185   16.58699
     261      444        2     0.00000   25.15786    3.38365    9.70401
     262      444        2     0.00000   25.15786   16.52915   22.84951
     263      444        2     0.00000   12.01236    3.38365   22.84951
     264      444        2     0.00000   12.01236   16.52915    9.70401
     265      444        2     0.00000    1.13314    3.38365   16.58699
     266      444        2     0.00000    1.13314   16.52915    3.44149
     267      444        2     0.00000   14.27864    3.38365    3.44149
     268      444        2     0.00000   14.27864   16.52915   16.58699
     269      444        2     0.00000    1.13314   22.90735    9.70401
     270      444        2     0.00000    1.13314    9.76185   22.84951
     271      444        2     0.00000   14.27864   22.90735   22.84951
     272      444        2     0.00000   14.27864    9.76185    9.70401
     273      444        2     0.00000   16.58699   25.15786   22.90735
     274      444        2     0.00000   16.58699   12.01236    9.76185
     275      444        2     0.00000    3.44149   25.15786    9.76185
     276      444        2     0.00000    3.44149   12.01236   22.90735
     277      444        2     0.00000    9.70401   25.15786    3.38365
     278      444        2     0.00000    9.70401   12.01236   16.52915
     279      444        2     0.00000   22.84951   25.15786   16.52915
     280      444        2     0.00000   22.84951   12.01236    3.38365
     281      444        2     0.00000   16.58699    1.13314    3.38365
     282      444        2     0.00000   16.58699   14.27864   16.52915
     283      444        2     0.00000    3.44149    1.13314   16.52915
     284      444        2     0.00000    3.44149   14.27864    3.38365
     285      444        2     0.00000    9.70401    1.13314   22.90735
     286      444        2     0.00000    9.70401   14.27864    9.76185
     287      444        2     0.00000   22.84951    1.13314    9.76185
     288      444        2     0.00000   22.84951   14.27864   22.90735
     289      444        3     0.00000    3.95417    8.53932    0.68620
     290      444        3     0.00000    4.35905    7.57970    1.72469
     291      444        3     0.00000    3.95417   21.68482   13.83170
     292      444        3     0.00000    4.35905   20.72520   14.87019
     293      444        3     0.00000   17.09967    8.53932   13.83170
     294      444        3     0.00000   17.50455    7.57970   14.87019
     295      444        3     0.00000   17.09967   21.68482    0.68620
     296      444        3     0.00000   17.50455   20.72520    1.72469
     297      444        3     0.00000   22.33683   17.75168    0.68620
     298      444        3     0.00000   21.93195   18.71130    1.72469
     299      444        3     0.00000   22.33683    4.60618   13.83170
     300      444        3     0.00000   21.93195    5.56580   14.87019
     301      444        3     0.00000    9.19133   17.75168   13.83170
     302      444        3     0.00000    8.78645   18.71130   14.87019
     303      444        3     0.00000    9.19133    4.60618    0.68620
     304      444        3     0.00000    8.78645    5.56580    1.72469
     305      444        3     0.00000   22.33683    8.53932   25.60480
     306      444        3     0.00000   21.93195    7.57970   24.56631
     307      444        3     0.00000   22.33683   21.68482   12.45930
     308      444        3     0.00000   21.93195   20.72520   11.42081
     309      444        3     0.00000    9.19133    8.53932   12.45930
     310      444        3     0.00000    8.78645    7.57970   11.42081
     311      444        3     0.00000    9.19133   21.68482   25.60480
     312      444        3     0.00000    8.78645   20.72520   24.56631
     313      444        3     0.00000    3.95417   17.75168   25.60480
     314      444        3     0.00000    4.35905   18.71130   24.56631
     315      444        3     0.00000    3.95417    4.60618   12.45930
     316      444        3     0.00000    4.35905    5.56580   11.42081
     317      444        3     0.00000   17.09967   17.75168   12.45930
     318      444        3     0.00000   17.50455   18.71130   11.42081
     319      444        3     0.00000   17.09967    4.60618   25.60480
     320      444        3     0.00000   17.50455    5.56580   24.56631
     321      444        3     0.00000    0.68620    3.95417    8.53932
     322      444        3     0.00000    1.72469    4.35905    7.57970
     323      444        3     0.00000    0.68620   17.09967   21.68482
     324      444        3     0.00000    1.72469   17.50455   20.72520
     325      444        3     0.00000   13.83170    3.95417   21.68482
     326      444        3     0.00000   14.87019    4.35905   20.72520
     327      444        3     0.00000   13.83170   17.09967    8.53932
     328      444        3     0.00000   14.87019   17.50455    7.57970
     329      444        3     0.00000    0.68620   22.33683   17.75168
     330      444        3     0.00000    1.72469   21.93195   18.71130
     331      444        3     0.00000    0.68620    9.19133    4.60618
     332      444        3     0.00000    1.72469    8.78645    5.56580
     333      444        3     0.00000   13.83170   22.33683    4.60618
     334      444        3     0.00000   14.87019   21.93195    5.56580
     335      444        3     0.00000   13.83170    9.19133   17.75168
     336      444        3     0.00000   14.87019    8.78645   18.71130
     337      444        3     0.00000   25.60480   22.33683    8.53932
     338      444        3     0.00000   24.56631   21.93195    7.57970
     339      444        3     0.00000   25.60480    9.19133   21.68482
     340      444        3     0.00000   24.56631    8.78645   20.72520
     341      444        3     0.00000   12.45930   22.33683   21.68482
     342      444        3     0.00000   11.42081   21.93195   20.72520
     343      444        3     0.00000   12.45930    9.19133    8.53932
     344      444        3     0.00000   11.42081    8.78645    7.57970
     345      444        3     0.00000   25.60480    3.95417   17.75168
     346      444        3     0.00000   24.56631    4.35905   18.71130
     347      444        3     0.00000   25.60480   17.09967    4.60618
     348      444        3     0.00000   24.56631   17.50455    5.56580
     349      444        3     0.00000   12.45930    3.95417    4.60618
     350      444        3     0.00000   11.42081    4.35905    5.56580
     351      444        3     0.00000   12.45930   17.09967   17.75168
     352      444        3     0.00000   11.42081   17.50455   18.71130
     353      444        3     0.00000    8.53932    0.68620    3.95417
     354      444        3     0.00000    7.57970    1.72469    4.35905
     355      444        3     0.00000    8.53932   13.83170   17.09967
     356      444        3     0.00000    7.57970   14.87019   17.50455
     357      444        3     0.00000   21.68482    0.68620   17.09967
     358      444        3     0.00000   20.72520    1.72469   17.50455
     359      444        3     0.00000   21.68482   13.83170    3.95417
     360      444        3     0.00000   20.72520   14.87019    4.35905
     361      444        3     0.00000   17.75168    0.68620   22.33683
     362      444        3     0.00000   18.71130    1.72469   21.93195
     363      444        3     0.00000   17.75168   13.83170    9.19133
     364      444        3     0.00000   18.71130   14.87019    8.78645
     365      444        3     0.00000    4.60618    0.68620    9.19133
     366      444        3     0.00000    5.56580    1.72469    8.78645
     367      444        3     0.00000    4.60618   13.83170   22.33683
     368      444        3     0.00000    5.56580   14.87019   21.93195
     369      444        3     0.00000    8.53932   25.60480   22.33683
     370      444        3     0.00000    7.57970   24.56631   21.93195
     371      444        3     0.00000    8.53932   12.45930    9.19133
     372      444        3     0.00000    7.57970   11.42081    8.78645
     373      444        3     0.00000   21.68482   25.60480    9.19133
     374      444        3     0.00000   20.72520   24.56631    8.78645
     375      444        3     0.00000   21.68482   12.45930   22.33683
     376      444        3     0.00000   20.72520   11.42081   21.93195