Created for BUKRUW

        2171 atoms
        2674 bonds
        4809 angles
        3840 dihedrals
        2592 impropers

          12 atom types
          17 bond types
          34 angle types
           3 dihedral types
           1 improper types
           0.000000  40.04429359 xlo xhi
           0.000000  40.04429359 ylo yhi
           0.000000  40.04429359 zlo zhi
           0.000000   0.000000   0.000000 xy xz yz

Masses

    1    14.006700000 # N_R
    2    14.006700000 # N_2
    3    65.380000000 # Zn3f2
    4    65.380000000 # Zn2f2
    5    12.010700000 # C_R
    6    12.010700000 # C_2
    7    12.010700000 # C_1
    8     1.007940000 # H_
    9    15.999400000 # O_2
   10    15.999400000 # O_3_f
   11    16.0 # O_ads
   12    0.001 # com

Bond Coeffs

    1      929.109299        1.322497  # N_R N_R
    2      663.718927        1.345073  # N_R C_R
    3      154.048673        1.928536  # N_R Zn3f2
    4      574.675770        1.411236  # N_2 C_2
    5      157.423273        1.914656  # N_2 Zn3f2
    6      679.304183        1.334706  # N_2 C_2
    7      122.127512        2.014866  # Zn3f2 O_3_f
    8      111.058393        2.079698  # Zn2f2 O_2
    9      462.655054        1.379256  # C_R C_R
   10      357.440381        1.081418  # C_R H_
   11      410.805866        1.435000  # C_R C_1
   12      354.483902        1.084416  # C_2 H_
   13      456.989953        1.384932  # C_2 C_2
   14      634.899802        1.320005  # C_1 O_2
   15      459.810871        1.382094  # C_2 C_R
   16      714.557442        1.269010  # C_R O_2
   17      1000.0	0.605  # O_ads com

Angle Coeffs

    1              cosine/periodic      327.477845              -1               3 # N_R N_R C_R
    2              cosine/periodic      118.309722              -1               3 # N_R N_R Zn3f2
    3              cosine/periodic       87.429320              -1               3 # C_R N_R Zn3f2
    4              cosine/periodic      101.811829              -1               3 # C_2 N_2 Zn3f2
    5              cosine/periodic      107.466670              -1               3 # C_2 N_2 Zn3f2
    6                      fourier      185.473732        0.343737        0.374972        0.281246 # N_R Zn3f2 N_2
    7                      fourier      155.087435        0.343737        0.374972        0.281246 # N_R Zn3f2 O_3_f
    8                      fourier      187.502481        0.343737        0.374972        0.281246 # N_2 Zn3f2 N_2
    9                      fourier      156.686398        0.343737        0.374972        0.281246 # N_2 Zn3f2 O_3_f
   10              cosine/periodic       93.957100              -1               3 # O_2 Zn2f2 O_2
   11                      fourier      183.483089        0.343737        0.374972        0.281246 # N_R Zn3f2 N_R
   12                      fourier      131.511072        0.343737        0.374972        0.281246 # O_2 Zn3f2 O_2
   13              cosine/periodic      307.398705              -1               3 # N_R C_R C_R
   14              cosine/periodic      159.573934              -1               3 # N_R C_R H_
   15              cosine/periodic      114.578032              -1               3 # C_R C_R H_
   16              cosine/periodic      222.595017              -1               3 # C_R C_R C_R
   17              cosine/periodic      209.521192              -1               3 # C_R C_R C_1
   18              cosine/periodic      284.334721              -1               3 # N_2 C_2 C_2
   19              cosine/periodic      145.656955              -1               3 # N_2 C_2 H_
   20              cosine/periodic      113.351268              -1               3 # C_2 C_2 H_
   21              cosine/periodic      308.918154              -1               3 # N_2 C_2 C_2
   22              cosine/periodic      161.267163              -1               3 # N_2 C_2 H_
   23              cosine/periodic      139.667363               1               1 # C_R C_1 O_2
   24              cosine/periodic      220.546308              -1               3 # C_2 C_2 C_R
   25              cosine/periodic      219.869394              -1               3 # C_2 C_2 C_2
   26              cosine/periodic      300.935000              -1               3 # C_2 C_R O_2
   27              cosine/periodic      413.556852              -1               3 # O_2 C_R O_2
   28              cosine/periodic       76.238534              -1               3 # C_1 O_2 Zn2f2
   29              cosine/periodic       84.412329              -1               3 # C_R O_2 Zn3f2
   30              cosine/periodic       78.882164              -1               3 # Zn2f2 O_2 C_R
   31                      fourier       42.532620        0.343737        0.374972        0.281246 # Zn3f2 O_3_f Zn3f2
   32                      fourier       38.677644        0.343737        0.374972        0.281246 # Zn2f2 O_3_f Zn2f2
   33                      fourier       40.525052        0.343737        0.374972        0.281246 # Zn2f2 O_3_f Zn3f2
   34              cosine/periodic      1000	1	1 # ads com ads

Dihedral Coeffs

    1        1.497136              -1               2 # C_R N_R N_R C_R
    2        0.833333              -1               2 # Zn3f2 N_2 C_2 C_2
    3        2.245703              -1               2 # Zn3f2 N_2 C_2 C_2

Improper Coeffs

    1        2.000000        1.000000       -1.000000        0.000000               0 # N_R N_R C_R Zn3f2

Atoms

1	1	1	-0.142775	6.28442	15.6454	2.77928	#	N
2	1	1	-0.130861	5.33043	16.5125	2.51049	#	N
3	1	2	-0.295637	3.44981	18.4197	4.23613	#	N
4	1	2	-0.317902	2.33881	15.4552	3.37134	#	N
5	1	1	-0.142778	4.35585	5.27627	12.9168	#	N
6	1	1	-0.130859	5.30061	4.41026	12.6238	#	N
7	1	2	-0.295636	6.86424	2.10611	14.1404	#	N
8	1	2	-0.317901	8.18684	4.85305	13.7828	#	N
9	1	1	-0.142776	14.3508	5.47737	7.61557	#	N
10	1	1	-0.13086	15.3798	6.26577	7.81574	#	N
11	1	2	-0.295637	17.0041	8.37139	5.82856	#	N
12	1	2	-0.317901	18.1999	5.58965	6.4382	#	N
13	1	1	-0.142777	16.0495	14.6889	17.4785	#	N
14	1	1	-0.130859	14.9429	13.989	17.6641	#	N
15	1	2	-0.295637	13.074	12.1609	15.7342	#	N
16	1	2	-0.317901	12.1651	15.0874	16.2385	#	N
17	1	1	-0.142777	2.82177	6.03381	15.4725	#	N
18	1	1	-0.13086	2.61161	4.97714	16.2152	#	N
19	1	2	-0.295637	4.40694	3.44482	18.4145	#	N
20	1	2	-0.317901	4.04047	2.31999	15.4927	#	N
21	1	1	-0.142777	12.7038	4.41021	5.10897	#	N
22	1	1	-0.130861	12.5	5.4421	4.30184	#	N
23	1	2	-0.295638	14.2311	6.91064	2.09187	#	N
24	1	2	-0.317901	14.0222	8.21668	4.98894	#	N
25	1	1	-0.142776	7.48489	14.3082	5.43484	#	N
26	1	1	-0.13086	7.66595	15.3306	6.21942	#	N
27	1	2	-0.295637	5.85872	16.8577	8.22799	#	N
28	1	2	-0.317901	6.34234	18.1509	5.48963	#	N
29	1	1	-0.142777	17.5224	15.89	14.7482	#	N
30	1	1	-0.130859	17.796	14.8732	14.0195	#	N
31	1	2	-0.295636	16.1202	13.2759	11.7554	#	N
32	1	2	-0.317901	16.338	11.9564	14.6306	#	N
33	1	1	-0.142776	15.2429	2.84172	6.25887	#	N
34	1	1	-0.13086	16.1337	2.51685	5.34392	#	N
35	1	2	-0.295637	18.208	4.32038	3.55395	#	N
36	1	2	-0.3179	15.3697	3.70872	2.32286	#	N
37	1	1	-0.142777	4.95782	13.0035	4.18194	#	N
38	1	1	-0.13086	4.1274	12.7279	5.16717	#	N
39	1	2	-0.295637	1.86308	14.4492	6.4428	#	N
40	1	2	-0.317901	4.65849	13.8825	8.10794	#	N
41	1	1	-0.142776	5.33284	7.7771	14.6462	#	N
42	1	1	-0.13086	6.13728	8.04119	15.6122	#	N
43	1	2	-0.295637	8.4672	6.22116	16.9136	#	N
44	1	2	-0.317901	5.70852	6.56408	18.5719	#	N
45	1	1	-0.142777	15.0288	17.4128	15.9439	#	N
46	1	1	-0.130859	14.3725	17.761	14.8643	#	N
47	1	2	-0.295638	12.2065	16.0393	13.108	#	N
48	1	2	-0.317901	15.2805	16.3493	12.164	#	N
49	1	3	0.662549	3.88959	16.538	3.85336	#	Zn
50	1	4	0.565831	6.57906	15.2482	16.6269	#	Zn
51	1	3	0.662549	6.5419	3.98388	14.0577	#	Zn
52	1	4	0.56583	3.75999	5.53152	6.6938	#	Zn
53	1	3	0.66255	16.5245	6.5494	6.26965	#	Zn
54	1	4	0.56583	13.9949	5.12241	13.7574	#	Zn
55	1	3	0.662548	13.6801	13.9101	16.1459	#	Zn
56	1	4	0.565831	16.7952	15.5851	3.54502	#	Zn
57	1	3	0.662548	4.16356	3.86005	16.5573	#	Zn
58	1	4	0.565831	16.5375	6.53438	15.0958	#	Zn
59	1	3	0.662549	14.0528	6.61297	4.01534	#	Zn
60	1	4	0.565831	6.46088	4.33216	5.43286	#	Zn
61	1	3	0.66255	6.15499	16.5505	6.41817	#	Zn
62	1	4	0.56583	13.8592	14.087	4.79344	#	Zn
63	1	3	0.662549	16.3025	13.6308	13.6949	#	Zn
64	1	4	0.56583	3.7612	16.4872	15.4141	#	Zn
65	1	3	0.662549	16.4076	3.92319	3.98046	#	Zn
66	1	4	0.565831	15.0411	16.6073	6.26884	#	Zn
67	1	3	0.662548	3.74626	14.1809	6.37971	#	Zn
68	1	4	0.565831	5.26916	6.99044	3.9049	#	Zn
69	1	3	0.66255	6.5666	6.49819	16.8086	#	Zn
70	1	4	0.56583	4.75178	14.0071	13.9447	#	Zn
71	1	3	0.662549	14.1093	16.3334	13.6547	#	Zn
72	1	4	0.56583	15.2025	3.74045	16.5334	#	Zn
73	1	3	0.57966	5.98697	14.5272	4.31678	#	Zn
74	1	3	0.579661	4.43993	6.11428	14.5645	#	Zn
75	1	3	0.57966	14.393	4.5006	6.0462	#	Zn
76	1	3	0.579661	15.9956	15.7199	15.7861	#	Zn
77	1	3	0.940206	3.86716	4.30079	4.02391	#	Zn
78	1	3	0.940208	6.34654	16.6161	13.8707	#	Zn
79	1	3	0.940207	16.6088	14.1028	6.15783	#	Zn
80	1	3	0.940207	13.8251	6.53888	16.4524	#	Zn
81	1	5	-0.066598	6.78573	15.2143	1.59923	#	C
82	1	5	-0.047534	5.17657	16.5977	1.14791	#	C
83	1	5	-0.076522	6.16411	15.7682	0.583712	#	C
84	1	6	0.119929	4.30279	19.4295	3.90702	#	C
85	1	6	0.096949	5.72363	19.2437	5.90385	#	C
86	1	7	0.150368	5.92466	14.8805	19.4895	#	C
87	1	6	-0.291197	5.3126	0.315828	4.78205	#	C
88	1	5	0.651357	5.28324	1.72977	4.73102	#	C
89	1	5	-0.066599	3.8278	5.80091	11.8085	#	C
90	1	5	-0.047533	5.35647	4.3177	11.2968	#	C
91	1	5	-0.076523	4.38309	5.18293	10.7434	#	C
92	1	6	0.119928	5.89242	1.16216	13.7184	#	C
93	1	6	0.09695	4.65546	1.14946	15.7383	#	C
94	1	7	0.15037	4.61047	5.85085	9.50673	#	C
95	1	6	-0.291198	5.25627	20.4068	14.877	#	C
96	1	5	0.651357	4.82613	19.0275	14.72	#	C
97	1	5	-0.066599	13.8648	5.03296	8.76467	#	C
98	1	5	-0.047533	15.6067	6.2947	9.14334	#	C
99	1	5	-0.076523	14.5861	5.56809	9.81034	#	C
100	1	6	0.119928	16.183	9.46651	6.36548	#	C
101	1	6	0.09695	14.6733	9.31369	4.56546	#	C
102	1	7	0.150369	14.8284	4.81928	10.9974	#	C
103	1	6	-0.291197	15.315	10.1237	5.52103	#	C
104	1	5	0.651357	15.2231	11.5389	5.47676	#	C
105	1	5	-0.066599	16.4526	15.2175	18.6122	#	C
106	1	5	-0.047533	14.6179	14.0853	18.9403	#	C
107	1	5	-0.076523	15.5982	14.7478	19.6152	#	C
108	1	6	0.119929	13.756	11.0085	16.2746	#	C
109	1	6	0.09695	15.325	11.1451	14.4206	#	C
110	1	7	0.150369	15.8535	15.7446	0.792644	#	C
111	1	6	-0.291198	14.7852	10.4034	15.4909	#	C
112	1	5	0.651356	15.1765	9.0968	15.6976	#	C
113	1	5	-0.066598	1.64184	6.53875	15.1099	#	C
114	1	5	-0.047534	1.30923	4.78515	16.3793	#	C
115	1	5	-0.076522	0.64271	5.77726	15.681	#	C
116	1	6	0.119929	4.037	4.3044	19.5163	#	C
117	1	6	0.09695	6.05495	5.57527	19.3996	#	C
118	1	7	0.150368	19.3549	5.61557	14.7949	#	C
119	1	6	-0.291197	4.63536	5.26331	40.0416	#	C
120	1	5	0.651356	4.60904	5.49116	1.4161	#	C
121	1	5	-0.066599	11.5309	3.95162	5.61318	#	C
122	1	5	-0.047533	11.1743	5.72402	4.3207	#	C
123	1	5	-0.076522	10.5083	4.69851	5.04097	#	C
124	1	6	0.119928	13.7681	5.97112	1.13245	#	C
125	1	6	0.09695	15.6848	4.45653	1.21284	#	C
126	1	7	0.150368	9.31396	4.96343	5.77274	#	C
127	1	6	-0.291197	14.6381	5.02747	20.4806	#	C
128	1	5	0.651357	14.4925	4.88982	19.087	#	C
129	1	5	-0.066598	8.65184	13.813	4.9978	#	C
130	1	5	-0.047534	8.96501	15.5997	6.25828	#	C
131	1	5	-0.076523	9.67665	14.5831	5.53534	#	C
132	1	6	0.119929	6.2477	15.969	9.20168	#	C
133	1	6	0.09695	4.30212	14.5587	9.19965	#	C
134	1	7	0.150369	10.9324	14.797	4.80421	#	C
135	1	6	-0.291197	5.31566	15.2577	9.90423	#	C
136	1	5	0.651355	5.40704	15.1782	11.3255	#	C
137	1	5	-0.066599	18.6549	16.3991	15.2325	#	C
138	1	5	-0.047532	19.1055	14.7263	13.9515	#	C
139	1	5	-0.076523	19.7207	15.7406	14.6683	#	C
140	1	6	0.11993	16.6513	14.17	10.7559	#	C
141	1	6	0.09695	14.8921	15.8551	11.0166	#	C
142	1	7	0.150369	1.04585	15.5579	15.663	#	C
143	1	6	-0.291197	15.793	15.1128	10.1612	#	C
144	1	5	0.651356	15.752	15.3114	8.80796	#	C
145	1	5	-0.066598	14.6873	1.73269	6.75182	#	C
146	1	5	-0.047534	16.1893	1.15319	5.22691	#	C
147	1	5	-0.076523	15.2854	0.630324	6.19014	#	C
148	1	6	0.11993	19.361	3.91566	4.26207	#	C
149	1	6	0.09695	19.3411	5.85148	5.77241	#	C
150	1	7	0.150369	15.0455	19.4993	5.64525	#	C
151	1	6	-0.291198	39.9003	4.90369	5.36567	#	C
152	1	5	0.651356	1.28635	4.94365	5.45966	#	C
153	1	5	-0.066599	5.37684	11.8666	3.58	#	C
154	1	5	-0.047533	4.05571	11.4073	5.32942	#	C
155	1	5	-0.076523	4.7795	10.8351	4.29905	#	C
156	1	6	0.119929	1.01882	14.0647	5.33913	#	C
157	1	6	0.09695	1.0991	15.8731	3.7564	#	C
158	1	7	0.150369	5.55345	9.67065	4.51872	#	C
159	1	6	-0.291197	20.6535	14.8244	4.93281	#	C
160	1	5	0.651356	19.2535	14.8665	4.79073	#	C
161	1	5	-0.066599	4.88538	8.92884	14.0716	#	C
162	1	5	-0.047534	6.16405	9.41067	15.7909	#	C
163	1	5	-0.076523	5.44984	10.0024	14.7052	#	C
164	1	6	0.119928	9.27668	6.57848	15.8427	#	C
165	1	6	0.096951	9.25021	4.59224	14.5518	#	C
166	1	7	0.150369	4.72948	11.2391	14.7798	#	C
167	1	6	-0.291197	9.97273	5.6762	15.0919	#	C
168	1	5	0.651356	11.3758	5.83438	14.9152	#	C
169	1	5	-0.0666	15.4746	18.5206	16.5849	#	C
170	1	5	-0.047533	14.5009	19.0845	14.6855	#	C
171	1	5	-0.076522	15.1339	19.6394	15.7906	#	C
172	1	6	0.119929	11.1348	16.5846	13.8367	#	C
173	1	6	0.09695	11.1418	14.7848	15.4588	#	C
174	1	7	0.150369	15.0866	0.770115	15.9957	#	C
175	1	6	-0.291197	10.4292	15.8277	14.7936	#	C
176	1	5	0.651356	9.04884	16.0198	15.0905	#	C
177	1	8	0.12821	7.45612	14.3679	1.52977	#	H
178	1	8	0.10863	4.2969	16.9444	0.696052	#	H
179	1	8	0.12562	4.51613	19.6049	2.89617	#	H
180	1	8	0.136773	5.61989	19.4006	6.95863	#	H
181	1	8	0.12821	3.02601	6.58603	11.7626	#	H
182	1	8	0.108629	6.24693	4.00856	10.7215	#	H
183	1	8	0.125621	6.06922	0.675334	12.6687	#	H
184	1	8	0.136773	4.66815	0.775893	16.7696	#	H
185	1	8	0.12821	13.0455	4.28426	8.86521	#	H
186	1	8	0.108629	16.5929	6.56572	9.59889	#	H
187	1	8	0.125621	16.4192	9.88778	7.29377	#	H
188	1	8	0.136773	14.6489	9.61436	3.53637	#	H
189	1	8	0.12821	16.9842	16.1532	18.719	#	H
190	1	8	0.108629	13.6082	13.7909	19.3648	#	H
191	1	8	0.125621	13.3652	10.4016	17.1403	#	H
192	1	8	0.136773	14.8254	11.0084	13.4822	#	H
193	1	8	0.12821	1.52768	7.13273	14.2667	#	H
194	1	8	0.108629	0.935634	3.8465	16.6226	#	H
195	1	8	0.12562	3.02814	4.20813	19.936	#	H
196	1	8	0.136773	7.13806	5.28819	19.495	#	H
197	1	8	0.12821	11.502	3.49272	6.6274	#	H
198	1	8	0.108629	10.714	6.65947	3.99951	#	H
199	1	8	0.125621	12.8464	6.23915	0.642646	#	H
200	1	8	0.136773	16.7444	4.58998	0.95242	#	H
201	1	8	0.128209	8.69224	13.3999	4.00469	#	H
202	1	8	0.10863	9.34857	16.425	6.79127	#	H
203	1	8	0.12562	7.30676	16.0514	9.5628	#	H
204	1	8	0.136773	3.32412	14.3114	9.70621	#	H
205	1	8	0.12821	18.7002	16.9169	16.1436	#	H
206	1	8	0.108628	19.559	13.8374	13.6584	#	H
207	1	8	0.12562	17.6089	14.0215	10.3236	#	H
208	1	8	0.136773	13.9592	16.214	10.6156	#	H
209	1	8	0.12821	13.6719	1.73015	7.15427	#	H
210	1	8	0.10863	16.398	0.677142	4.27408	#	H
211	1	8	0.12562	19.7449	2.92795	4.08844	#	H
212	1	8	0.136773	19.6587	6.91232	5.61641	#	H
213	1	8	0.12821	6.23399	11.8342	2.97736	#	H
214	1	8	0.108629	3.96117	10.9663	6.3274	#	H
215	1	8	0.125621	0.632431	13.0758	5.26769	#	H
216	1	8	0.136773	0.971002	16.9616	3.92102	#	H
217	1	8	0.12821	4.02197	8.9257	13.463	#	H
218	1	8	0.10863	6.47978	9.87295	16.7505	#	H
219	1	8	0.125621	9.49528	7.64704	15.7316	#	H
220	1	8	0.136772	9.55986	3.60319	14.6753	#	H
221	1	8	0.12821	16.3807	18.5087	17.1901	#	H
222	1	8	0.108629	14.2676	19.6688	13.8104	#	H
223	1	8	0.125621	10.6868	17.5109	13.6125	#	H
224	1	8	0.136773	10.9046	13.6907	15.2886	#	H
225	1	9	-0.263256	5.9548	14.2793	18.3447	#	O
226	1	9	-0.568251	4.58326	2.35732	3.83265	#	O
227	1	9	-0.532386	6.08942	2.39369	5.48543	#	O
228	1	9	-0.263257	4.72133	6.3439	8.31262	#	O
229	1	9	-0.568253	5.30136	18.3548	13.7578	#	O
230	1	9	-0.532386	4.08761	18.443	15.5812	#	O
231	1	9	-0.263257	14.8605	4.19675	12.1561	#	O
232	1	9	-0.568252	15.9339	12.2203	6.29837	#	O
233	1	9	-0.532385	14.2259	12.0742	4.89178	#	O
234	1	9	-0.263257	16.0165	16.4369	1.91235	#	O
235	1	9	-0.568252	14.7168	8.38307	16.6585	#	O
236	1	9	-0.532386	16.0565	8.5952	14.9176	#	O
237	1	9	-0.263256	18.1893	5.73475	14.1097	#	O
238	1	9	-0.568251	3.71104	4.91429	2.09329	#	O
239	1	9	-0.532386	5.56376	6.2184	1.98995	#	O
240	1	9	-0.263256	8.17101	5.09863	6.43752	#	O
241	1	9	-0.568253	13.7143	5.72118	18.4777	#	O
242	1	9	-0.532385	14.9932	3.90057	18.5255	#	O
243	1	9	-0.263257	12.0129	14.9405	4.10163	#	O
244	1	9	-0.568252	6.2803	15.88	11.9574	#	O
245	1	9	-0.532384	4.77524	14.2637	11.9211	#	O
246	1	9	-0.263256	2.21825	15.3974	16.2493	#	O
247	1	9	-0.568251	16.6605	14.7375	8.08448	#	O
248	1	9	-0.532386	14.9274	16.1437	8.29085	#	O
249	1	9	-0.263257	14.2533	18.4479	5.51948	#	O
250	1	9	-0.568251	1.97778	4.1174	4.75064	#	O
251	1	9	-0.532385	1.79823	5.68589	6.2841	#	O
252	1	9	-0.263257	6.2915	8.57817	4.60623	#	O
253	1	9	-0.568252	18.5256	14.0039	5.39638	#	O
254	1	9	-0.532385	18.7391	15.7777	4.12891	#	O
255	1	9	-0.263257	3.91374	12.2754	14.7959	#	O
256	1	9	-0.568252	12.0188	6.71954	15.5165	#	O
257	1	9	-0.532385	11.9037	5.19189	13.9593	#	O
258	1	9	-0.263257	15.7195	1.87753	15.7006	#	O
259	1	9	-0.568252	8.32456	16.831	14.3822	#	O
260	1	9	-0.532386	8.57399	15.5687	16.2124	#	O
261	1	10	-0.755402	4.68886	15.5978	5.43773	#	O
262	1	10	-0.755402	5.6599	4.93467	15.7397	#	O
263	1	10	-0.755402	15.6281	5.54178	4.81252	#	O
264	1	10	-0.755402	14.7222	14.6414	14.5489	#	O
265	1	10	-0.804352	5.3015	15.4835	15.0675	#	O
266	1	10	-0.804353	4.94954	5.49797	5.12417	#	O
267	1	10	-0.804352	14.9561	5.42644	15.3866	#	O
268	1	10	-0.804352	15.4533	15.2007	4.98812	#	O
269	1	1	-0.142775	5.98531	15.2968	23.0437	#	N
270	1	1	-0.130861	5.04514	16.1803	22.7342	#	N
271	1	2	-0.295637	3.43587	18.4257	24.1839	#	N
272	1	2	-0.317902	2.06004	15.5534	23.6895	#	N
273	1	1	-0.142778	4.26497	4.98446	33.1124	#	N
274	1	1	-0.130859	5.37699	4.31119	32.8078	#	N
275	1	2	-0.295636	6.91082	2.29504	34.7508	#	N
276	1	2	-0.317901	8.0278	5.29328	33.8901	#	N
277	1	1	-0.142776	14.4266	5.24414	27.6055	#	N
278	1	1	-0.13086	15.4122	6.06845	27.8554	#	N
279	1	2	-0.295637	16.8512	8.30134	25.9395	#	N
280	1	2	-0.317901	18.2747	5.32777	26.5656	#	N
281	1	1	-0.142777	16.007	14.8827	37.4256	#	N
282	1	1	-0.130859	14.9679	14.1491	37.7868	#	N
283	1	2	-0.295637	13.3949	12.0363	36.1457	#	N
284	1	2	-0.317901	12.1012	14.977	36.5669	#	N
285	1	1	-0.142777	2.94174	6.21601	35.5978	#	N
286	1	1	-0.13086	2.62081	5.23699	36.4023	#	N
287	1	2	-0.295637	4.27448	3.47272	38.4753	#	N
288	1	2	-0.317901	3.9038	2.42714	35.5042	#	N
289	1	1	-0.142777	13.0185	3.93368	25.0844	#	N
290	1	1	-0.130861	12.6814	4.86666	24.2391	#	N
291	1	2	-0.295638	14.2815	6.68592	22.1803	#	N
292	1	2	-0.317901	13.7961	7.84512	24.9526	#	N
293	1	1	-0.142776	7.29668	14.0045	25.525	#	N
294	1	1	-0.13086	7.56095	14.9951	26.2986	#	N
295	1	2	-0.295637	5.85126	16.8344	28.2526	#	N
296	1	2	-0.317901	6.42552	17.8517	25.3211	#	N
297	1	1	-0.142777	17.4148	15.9265	34.7789	#	N
298	1	1	-0.130859	17.7037	14.7803	34.2005	#	N
299	1	2	-0.295636	15.7886	13.4982	32.1135	#	N
300	1	2	-0.317901	16.4101	12.0363	34.931	#	N
301	1	1	-0.142776	15.7142	2.71471	26.0567	#	N
302	1	1	-0.13086	16.3554	2.48156	24.9075	#	N
303	1	2	-0.295637	18.4047	4.22558	23.5244	#	N
304	1	2	-0.3179	15.7631	3.67177	22.1135	#	N
305	1	1	-0.142777	4.74627	12.7548	24.2483	#	N
306	1	1	-0.13086	3.89969	12.5013	25.2105	#	N
307	1	2	-0.295637	1.79775	14.1937	26.6558	#	N
308	1	2	-0.317901	4.39117	13.6765	28.2106	#	N
309	1	1	-0.142776	5.39504	7.5911	34.5022	#	N
310	1	1	-0.13086	6.22588	7.93643	35.4843	#	N
311	1	2	-0.295637	8.44869	6.23862	36.9182	#	N
312	1	2	-0.317901	5.51601	6.60283	38.2503	#	N
313	1	1	-0.142777	15.0676	17.3686	36.0085	#	N
314	1	1	-0.130859	14.2169	17.741	35.1193	#	N
315	1	2	-0.295638	11.9972	16.0096	33.4581	#	N
316	1	2	-0.317901	14.6995	16.7029	32.228	#	N
317	1	3	0.662549	3.6866	16.4858	24.1085	#	Zn
318	1	4	0.565831	6.36822	15.0248	36.5141	#	Zn
319	1	3	0.662549	6.61451	4.0913	34.2348	#	Zn
320	1	4	0.56583	3.78862	5.41852	26.7933	#	Zn
321	1	3	0.66255	16.5776	6.39211	26.2818	#	Zn
322	1	4	0.56583	14.09	5.11078	33.7922	#	Zn
323	1	3	0.662548	13.7142	13.9048	36.3329	#	Zn
324	1	4	0.565831	16.1858	15.2867	23.7102	#	Zn
325	1	3	0.662548	4.1113	3.99795	36.6925	#	Zn
326	1	4	0.565831	16.6944	6.51927	35.4334	#	Zn
327	1	3	0.662549	14.0068	6.23984	23.9533	#	Zn
328	1	4	0.565831	6.67837	3.7234	25.7556	#	Zn
329	1	3	0.66255	6.19421	16.3621	26.489	#	Zn
330	1	4	0.56583	13.6163	13.7657	24.7822	#	Zn
331	1	3	0.662549	16.2056	13.6817	33.9289	#	Zn
332	1	4	0.56583	3.61618	16.5358	35.3471	#	Zn
333	1	3	0.662549	16.6346	3.97838	23.7827	#	Zn
334	1	4	0.565831	14.7982	16.5155	26.3389	#	Zn
335	1	3	0.662548	3.58853	13.9349	26.5383	#	Zn
336	1	4	0.565831	5.61585	6.42355	24.1049	#	Zn
337	1	3	0.66255	6.61407	6.52812	36.7365	#	Zn
338	1	4	0.56583	4.86155	13.7251	33.8564	#	Zn
339	1	3	0.662549	13.7751	16.3325	33.7949	#	Zn
340	1	4	0.56583	15.2529	3.70503	36.5224	#	Zn
341	1	3	0.57966	5.69454	14.3197	24.6415	#	Zn
342	1	3	0.579661	4.49862	6.03996	34.6652	#	Zn
343	1	3	0.57966	14.6328	4.22671	26.0026	#	Zn
344	1	3	0.579661	15.8404	15.7678	35.7524	#	Zn
345	1	3	0.940206	4.00261	3.94031	24.1408	#	Zn
346	1	3	0.940208	6.26853	16.5053	33.8919	#	Zn
347	1	3	0.940207	16.1876	13.9047	26.3799	#	Zn
348	1	3	0.940207	13.9625	6.46327	36.5307	#	Zn
349	1	5	-0.066598	6.50347	14.7747	21.9404	#	C
350	1	5	-0.047534	4.91471	16.174	21.4161	#	C
351	1	5	-0.076522	5.89085	15.4138	20.8393	#	C
352	1	6	0.119929	4.40511	19.3635	23.7468	#	C
353	1	6	0.096949	5.90339	19.0824	25.6955	#	C
354	1	7	0.150368	5.95329	15.0196	39.4554	#	C
355	1	6	-0.291197	5.21624	40.0044	24.8625	#	C
356	1	5	0.651357	5.47107	1.30791	24.8413	#	C
357	1	5	-0.066599	3.58847	5.3717	31.984	#	C
358	1	5	-0.047533	5.41499	4.22163	31.4497	#	C
359	1	5	-0.076523	4.27793	4.87023	30.8694	#	C
360	1	6	0.119928	6.19917	1.18141	34.1158	#	C
361	1	6	0.09695	4.46932	1.22233	35.7944	#	C
362	1	7	0.15037	4.35064	5.58815	29.6319	#	C
363	1	6	-0.291198	4.9461	20.552	34.5453	#	C
364	1	5	0.651357	4.85679	19.1738	34.5183	#	C
365	1	5	-0.066599	13.884	4.8278	28.733	#	C
366	1	5	-0.047533	15.5406	6.20874	29.1765	#	C
367	1	5	-0.076523	14.5478	5.45528	29.7602	#	C
368	1	6	0.119928	15.9469	9.24921	26.4037	#	C
369	1	6	0.09695	14.3092	9.07083	24.6167	#	C
370	1	7	0.150369	14.8123	4.77383	31.0066	#	C
371	1	6	-0.291197	15.0289	9.83809	25.5507	#	C
372	1	5	0.651357	14.9863	11.2353	25.4772	#	C
373	1	5	-0.066599	16.6191	15.3419	38.5434	#	C
374	1	5	-0.047533	14.7581	14.2645	39.0881	#	C
375	1	5	-0.076523	15.8114	14.9946	39.6008	#	C
376	1	6	0.119929	14.2146	11.0741	36.6893	#	C
377	1	6	0.09695	15.6209	11.0283	34.7868	#	C
378	1	7	0.150369	15.3942	15.5059	20.8115	#	C
379	1	6	-0.291198	15.0996	10.3997	35.8997	#	C
380	1	5	0.651356	15.3491	9.0641	36.1657	#	C
381	1	5	-0.066598	1.8268	6.78925	35.1208	#	C
382	1	5	-0.047534	1.30671	5.15348	36.494	#	C
383	1	5	-0.076522	0.749144	6.0932	35.6408	#	C
384	1	6	0.119929	3.79802	4.30401	39.509	#	C
385	1	6	0.09695	5.70418	5.77407	39.2377	#	C
386	1	7	0.150368	19.5453	5.77626	35.1067	#	C
387	1	6	-0.291197	5.0593	4.97057	20.1724	#	C
388	1	5	0.651356	5.04364	5.12563	21.5707	#	C
389	1	5	-0.066599	11.9449	3.39364	25.7013	#	C
390	1	5	-0.047533	11.3489	5.01202	24.2755	#	C
391	1	5	-0.076522	10.8426	4.02713	25.1811	#	C
392	1	6	0.119928	13.7706	5.84293	21.1844	#	C
393	1	6	0.09695	15.8647	4.54198	21.0917	#	C
394	1	7	0.150368	9.62193	4.29975	26.0042	#	C
395	1	6	-0.291197	14.7081	5.10382	0.451157	#	C
396	1	5	0.651357	14.6622	4.94914	39.1182	#	C
397	1	5	-0.066598	8.48835	13.406	25.0717	#	C
398	1	5	-0.047534	8.90996	15.0992	26.4118	#	C
399	1	5	-0.076523	9.56285	14.0709	25.6381	#	C
400	1	6	0.119929	6.26264	15.9561	29.2646	#	C
401	1	6	0.09695	4.20499	14.609	29.2097	#	C
402	1	7	0.150369	10.8142	14.3237	24.9095	#	C
403	1	6	-0.291197	5.33564	15.1406	29.8911	#	C
404	1	5	0.651355	5.33371	15.0936	31.3379	#	C
405	1	5	-0.066599	18.5345	16.5058	35.1321	#	C
406	1	5	-0.047532	19.0393	14.6435	34.2105	#	C
407	1	5	-0.076523	19.6333	15.7748	34.776	#	C
408	1	6	0.11993	16.3226	14.3567	31.1525	#	C
409	1	6	0.09695	14.4106	15.9068	31.1479	#	C
410	1	7	0.150369	0.712923	15.8482	35.3712	#	C
411	1	6	-0.291197	15.4927	15.2515	30.4392	#	C
412	1	5	0.651356	15.5124	15.2759	29.0028	#	C
413	1	5	-0.066598	15.373	1.5563	26.6096	#	C
414	1	5	-0.047534	16.3532	1.18868	24.6441	#	C
415	1	5	-0.076523	15.7091	0.522069	25.7313	#	C
416	1	6	0.11993	19.4802	3.81113	24.3597	#	C
417	1	6	0.09695	19.4275	5.65714	25.9276	#	C
418	1	7	0.150369	14.6077	19.3547	25.8717	#	C
419	1	6	-0.291198	39.9087	4.75191	25.1571	#	C
420	1	5	0.651356	1.30582	4.66075	25.4097	#	C
421	1	5	-0.066599	5.33463	11.6133	23.8039	#	C
422	1	5	-0.047533	3.92958	11.2028	25.4249	#	C
423	1	5	-0.076523	4.79523	10.5836	24.536	#	C
424	1	6	0.119929	0.759315	13.8392	25.7122	#	C
425	1	6	0.09695	1.00018	15.8327	24.3837	#	C
426	1	7	0.150369	5.46348	9.30344	24.7435	#	C
427	1	6	-0.291197	20.2089	14.6523	24.9717	#	C
428	1	5	0.651356	18.7628	14.6794	24.9486	#	C
429	1	5	-0.066599	4.93953	8.68967	33.9146	#	C
430	1	5	-0.047534	6.31183	9.31337	35.5562	#	C
431	1	5	-0.076523	5.55252	9.82611	34.4907	#	C
432	1	6	0.119928	9.32454	6.74676	35.9667	#	C
433	1	6	0.096951	9.18014	4.87802	34.4012	#	C
434	1	7	0.150369	4.75829	11.0237	34.6375	#	C
435	1	6	-0.291197	9.96569	5.83599	35.0279	#	C
436	1	5	0.651356	11.3725	5.74939	35.0127	#	C
437	1	5	-0.0666	15.564	18.4847	36.6298	#	C
438	1	5	-0.047533	14.1998	19.0929	35.0901	#	C
439	1	5	-0.076522	14.9583	19.5845	36.1461	#	C
440	1	6	0.119929	10.9478	16.6067	34.2357	#	C
441	1	6	0.09695	11.0668	14.7698	35.761	#	C
442	1	7	0.150369	15.3118	0.751288	35.9153	#	C
443	1	6	-0.291197	10.3332	15.8297	35.2129	#	C
444	1	5	0.651356	8.93849	15.7681	35.241	#	C
445	1	8	0.12821	7.06117	13.9135	21.9219	#	H
446	1	8	0.10863	4.02302	16.6247	20.8892	#	H
447	1	8	0.12562	4.22057	19.8303	22.7916	#	H
448	1	8	0.136773	5.69768	19.234	26.7285	#	H
449	1	8	0.12821	3.06191	6.34483	32.0181	#	H
450	1	8	0.108629	6.30297	4.13514	30.8765	#	H
451	1	8	0.125621	6.56661	0.739992	33.1591	#	H
452	1	8	0.136773	4.14333	0.772408	36.6928	#	H
453	1	8	0.12821	13.3514	3.90814	28.7573	#	H
454	1	8	0.108629	16.4905	6.3037	29.6735	#	H
455	1	8	0.125621	16.1823	9.75455	27.2869	#	H
456	1	8	0.136773	14.2682	9.39291	23.6458	#	H
457	1	8	0.12821	17.3708	16.0575	38.5708	#	H
458	1	8	0.108629	13.8015	14.3241	39.5043	#	H
459	1	8	0.125621	14.0572	10.7798	37.6896	#	H
460	1	8	0.136773	15.0228	10.9582	33.8885	#	H
461	1	8	0.12821	1.77633	7.31248	34.1752	#	H
462	1	8	0.108629	0.855153	4.26706	36.7841	#	H
463	1	8	0.12562	2.77951	4.07307	39.9229	#	H
464	1	8	0.136773	6.68665	5.66763	39.6217	#	H
465	1	8	0.12821	11.9563	3.05748	26.7553	#	H
466	1	8	0.108629	10.8052	5.9653	24.0856	#	H
467	1	8	0.125621	12.7821	6.00431	20.8022	#	H
468	1	8	0.136773	16.7777	4.84457	20.6722	#	H
469	1	8	0.128209	8.51827	12.8334	24.1418	#	H
470	1	8	0.10863	9.36064	16.0023	26.6665	#	H
471	1	8	0.12562	7.26076	16.0396	29.6725	#	H
472	1	8	0.136773	3.2979	15.1986	29.1474	#	H
473	1	8	0.12821	18.5629	17.3468	35.8735	#	H
474	1	8	0.108628	19.5189	13.7952	33.9531	#	H
475	1	8	0.12562	17.3768	14.2715	30.8973	#	H
476	1	8	0.136773	13.4406	15.9115	30.7208	#	H
477	1	8	0.12821	14.5429	1.39543	27.2741	#	H
478	1	8	0.10863	16.5471	0.84091	23.5921	#	H
479	1	8	0.12562	19.9741	2.87449	24.2313	#	H
480	1	8	0.136773	19.8093	6.70097	25.8754	#	H
481	1	8	0.12821	6.3854	11.5729	23.6665	#	H
482	1	8	0.108629	3.5997	10.7464	26.39	#	H
483	1	8	0.125621	0.372973	12.802	25.7426	#	H
484	1	8	0.136773	0.555237	16.8133	24.234	#	H
485	1	8	0.12821	3.92861	8.69308	33.3894	#	H
486	1	8	0.10863	6.73242	9.87705	36.3843	#	H
487	1	8	0.125621	9.46371	7.84069	35.915	#	H
488	1	8	0.136772	9.69384	3.91491	34.0035	#	H
489	1	8	0.12821	16.4742	18.4542	37.2171	#	H
490	1	8	0.108629	14.2392	19.5582	34.1119	#	H
491	1	8	0.125621	10.5341	17.5321	33.9364	#	H
492	1	8	0.136773	10.6111	13.7558	35.7624	#	H
493	1	9	-0.263256	5.69468	14.2847	38.38	#	O
494	1	9	-0.568251	4.904	2.06076	23.9769	#	O
495	1	9	-0.532386	6.19693	1.77462	25.771	#	O
496	1	9	-0.263257	4.46766	6.34126	28.5679	#	O
497	1	9	-0.568253	5.70035	18.5303	33.7773	#	O
498	1	9	-0.532386	3.97234	18.5638	35.1909	#	O
499	1	9	-0.263257	14.9399	4.05906	32.1645	#	O
500	1	9	-0.568252	15.7725	11.9309	26.1917	#	O
501	1	9	-0.532385	14.0744	11.8046	24.7423	#	O
502	1	9	-0.263257	15.3349	16.0945	21.9486	#	O
503	1	9	-0.568252	14.4573	8.39683	36.8079	#	O
504	1	9	-0.532386	16.3641	8.49172	35.6249	#	O
505	1	9	-0.263256	18.3495	5.8027	34.4592	#	O
506	1	9	-0.568251	4.0742	4.71016	22.2326	#	O
507	1	9	-0.532386	5.78286	5.97323	22.0931	#	O
508	1	9	-0.263256	8.49738	4.52293	26.6571	#	O
509	1	9	-0.568253	13.8184	5.66761	38.4617	#	O
510	1	9	-0.532385	15.3914	4.07677	38.5507	#	O
511	1	9	-0.263257	11.8413	14.5388	24.1607	#	O
512	1	9	-0.568252	6.2924	15.6059	31.9735	#	O
513	1	9	-0.532384	4.54756	14.298	31.9115	#	O
514	1	9	-0.263256	1.83223	15.8151	36.113	#	O
515	1	9	-0.568251	16.3166	14.5217	28.3629	#	O
516	1	9	-0.532386	14.7584	16.1088	28.3843	#	O
517	1	9	-0.263257	13.9229	18.2584	25.6859	#	O
518	1	9	-0.568251	2.02697	3.88805	24.7038	#	O
519	1	9	-0.532385	1.83824	5.46836	26.2173	#	O
520	1	9	-0.263257	6.17918	8.23426	24.8857	#	O
521	1	9	-0.568252	18.1313	14.015	25.8163	#	O
522	1	9	-0.532385	18.175	15.3099	23.9719	#	O
523	1	9	-0.263257	4.06595	12.1348	34.7892	#	O
524	1	9	-0.568252	12.0605	6.43938	35.7707	#	O
525	1	9	-0.532385	11.9593	5.15592	34.0382	#	O
526	1	9	-0.263257	16.0142	1.88395	35.7654	#	O
527	1	9	-0.568252	8.27057	16.5655	34.5185	#	O
528	1	9	-0.532386	8.40159	15.1399	36.1926	#	O
529	1	10	-0.755402	4.50459	15.5333	25.7357	#	O
530	1	10	-0.755402	5.76248	4.90387	35.7823	#	O
531	1	10	-0.755402	15.6781	5.55486	24.8168	#	O
532	1	10	-0.755402	14.6068	14.6965	34.7033	#	O
533	1	10	-0.804352	5.17188	15.3683	34.976	#	O
534	1	10	-0.804353	5.13784	4.90806	25.3333	#	O
535	1	10	-0.804352	15.1714	5.37895	35.4082	#	O
536	1	10	-0.804352	15.0836	15.0063	25.2486	#	O
537	1	1	-0.142775	5.77146	35.5935	2.72009	#	N
538	1	1	-0.130861	4.74805	36.3495	2.45354	#	N
539	1	2	-0.295637	3.57045	38.6906	4.33864	#	N
540	1	2	-0.317902	2.01537	36.0292	3.98217	#	N
541	1	1	-0.142778	4.34028	24.8237	13.2388	#	N
542	1	1	-0.130859	5.25768	23.9714	12.8964	#	N
543	1	2	-0.295636	7.17119	21.9611	14.6059	#	N
544	1	2	-0.317901	8.14949	24.723	13.9877	#	N
545	1	1	-0.142776	14.3869	25.427	7.4307	#	N