Created for EZOFOP

        1956 atoms
        2216 bonds
        3820 angles
        4992 dihedrals
        2952 impropers

           8 atom types
          12 bond types
          18 angle types
           4 dihedral types
           1 improper types
           0.000000  52.0454918 xlo xhi
           0.000000  26.0227459 ylo yhi
           0.000000  26.0227459 zlo zhi
           0.000000   0.000000   0.000000 xy xz yz

Masses

    1     1.007940000 # H_
    2    15.999400000 # O_2
    3    12.010700000 # C_R
    4    12.010700000 # C_3
    5    58.693400000 # Ni4+2
    6    14.006700000 # N_R
    7    16.0 # O_ads
    8    0.001 # com

Bond Coeffs

    1      331.069389        1.109401  # H_ C_3
    2      357.440381        1.081418  # H_ C_R
    3      529.459447        1.043423  # H_ N_R
    4      714.557442        1.269010  # O_2 C_R
    5      264.220014        1.915116  # O_2 Ni4+2
    6      391.669513        1.458000  # C_R C_R
    7      462.655054        1.379256  # C_R C_R
    8      369.943935        1.486000  # C_R C_3
    9      663.718927        1.345073  # C_R N_R
   10      328.673665        1.841585  # Ni4+2 N_R
   11      929.109299        1.322497  # N_R N_R
   12      1000.0	0.605  # O_ads com

Angle Coeffs

    1              cosine/periodic      174.366108              -1               3 # C_R O_2 Ni4+2
    2              cosine/periodic      275.428492              -1               3 # O_2 C_R C_R
    3              cosine/periodic      413.556852              -1               3 # O_2 C_R O_2
    4              cosine/periodic      204.366560              -1               3 # C_R C_R C_R
    5              cosine/periodic      222.595017              -1               3 # C_R C_R C_R
    6              cosine/periodic      114.578032              -1               3 # C_R C_R H_
    7              cosine/periodic      273.097456              -1               3 # C_3 C_R N_R
    8              cosine/periodic      424.885146              -1               3 # N_R C_R N_R
    9                      fourier      121.777217        0.343737        0.374972        0.281246 # C_R C_3 H_
   10                      fourier       75.498766        0.343737        0.374972        0.281246 # H_ C_3 H_
   11              cosine/periodic      265.254973               1               4 # O_2 Ni4+2 O_2
   12              cosine/periodic      310.545935               1               4 # O_2 Ni4+2 N_R
   13              cosine/periodic      240.001032              -1               3 # C_R N_R C_R
   14              cosine/periodic      177.809033              -1               3 # C_R N_R Ni4+2
   15              cosine/periodic      171.675715              -1               3 # N_R N_R H_
   16              cosine/periodic      327.477845              -1               3 # N_R N_R C_R
   17              cosine/periodic      125.071223              -1               3 # H_ N_R C_R
   18              cosine/periodic      1000	1	1 # ads com ads

Dihedral Coeffs

    1        2.245703              -1               2 # Ni4+2 O_2 C_R O_2
    2        0.555556              -1               2 # O_2 C_R C_R C_R
    3        1.497136              -1               2 # C_R C_R C_R C_R
    4        0.083333               1               3 # N_R C_R C_3 H_

Improper Coeffs

    1        2.000000        1.000000       -1.000000        0.000000               0 # O_2 C_R C_R O_2

Pair Coeffs

    1        0.044000        2.571134 # H_ H_
    2        0.060000        3.118146 # O_2 O_2
    3        0.105000        3.430851 # C_R C_R
    4        0.105000        3.430851 # C_3 C_3
    5        0.015000        2.524807 # Ni4+2 Ni4+2
    6        0.069000        3.260689 # N_R N_R
    7        0.0974	3.02 # O_ads
    8        0.0	0.0  # com

Atoms

1	1	1	0	16.7596	25.8398	8.54743	#	H
2	1	1	0	20.421	6.4775	3.58756	#	H
3	1	1	0	17.9343	1.68595	3.02174	#	H
4	1	1	0	19.9556	2.83835	3.34749	#	H
5	1	1	0	18.0512	5.6869	5.86434	#	H
6	1	1	0	16.0005	4.28746	5.71195	#	H
7	1	1	0	10.6669	26.3157	7.01132	#	H
8	1	1	0	6.90557	20.5126	3.13274	#	H
9	1	1	0	9.51523	25.1486	3.09759	#	H
10	1	1	0	7.44826	23.8458	3.36878	#	H
11	1	1	0	9.45072	20.8268	5.64304	#	H
12	1	1	0	11.5797	22.1486	5.44469	#	H
13	1	1	0	10.8834	25.7552	19.8002	#	H
14	1	1	0	6.94568	6.11517	23.329	#	H
15	1	1	0	10.2866	2.5372	24.5414	#	H
16	1	1	0	8.05735	3.55762	24.0115	#	H
17	1	1	0	9.59978	5.24253	20.5251	#	H
18	1	1	0	11.5198	3.71247	20.6261	#	H
19	1	1	0	16.2721	25.2248	19.1695	#	H
20	1	1	0	20.8219	20.5001	23.4168	#	H
21	1	1	0	18.0593	25.2869	23.7372	#	H
22	1	1	0	20.2059	24.3988	23.3651	#	H
23	1	1	0	18.6305	21.309	20.8566	#	H
24	1	1	0	16.2986	22.2636	21.2708	#	H
25	1	1	0	7.98286	15.5383	24.4823	#	H
26	1	1	0	3.5982	20.2035	5.93426	#	H
27	1	1	0	2.91555	17.4216	1.60112	#	H
28	1	1	0	3.39404	19.6674	2.50716	#	H
29	1	1	0	6.15135	17.7135	5.30254	#	H
30	1	1	0	5.87712	15.5873	4.09937	#	H
31	1	1	0	7.14266	10.5771	26.1142	#	H
32	1	1	0	4.18307	6.686	20.0307	#	H
33	1	1	0	2.756	9.22937	24.3596	#	H
34	1	1	0	3.29071	7.07198	23.2125	#	H
35	1	1	0	6.72719	8.94066	21.3872	#	H
36	1	1	0	6.29758	11.0484	22.7027	#	H
37	1	1	0	20.1983	10.684	26.187	#	H
38	1	1	0	23.7494	6.69198	6.41371	#	H
39	1	1	0	24.4176	9.64135	2.10685	#	H
40	1	1	0	24.4184	7.53651	3.37281	#	H
41	1	1	0	20.5989	8.67643	5.04891	#	H
42	1	1	0	20.6165	10.8338	3.59815	#	H
43	1	1	0	19.178	16.4012	25.428	#	H
44	1	1	0	23.9364	20.2146	20.4479	#	H
45	1	1	0	24.7175	17.2989	24.6382	#	H
46	1	1	0	24.6149	19.4324	23.4284	#	H
47	1	1	0	21.1433	18.0201	21.3578	#	H
48	1	1	0	21.2437	15.8592	22.6707	#	H
49	1	1	0	1.02387	6.67037	16.2237	#	H
50	1	1	0	7.11562	3.33631	20.0705	#	H
51	1	1	0	2.73799	2.36866	17.3414	#	H
52	1	1	0	3.83961	3.07691	19.5049	#	H
53	1	1	0	6.07428	6.04973	17.5216	#	H
54	1	1	0	4.79419	5.53786	15.2177	#	H
55	1	1	0	27.4042	8.52546	10.6882	#	H
56	1	1	0	20.8581	3.60816	6.80094	#	H
57	1	1	0	25.125	2.52676	9.43464	#	H
58	1	1	0	24.2217	3.18915	7.309	#	H
59	1	1	0	21.7462	6.17397	9.18055	#	H
60	1	1	0	22.7333	5.51742	11.3937	#	H
61	1	1	0	0.831675	19.7131	10.5535	#	H
62	1	1	0	6.93263	22.9055	6.7786	#	H
63	1	1	0	1.4163	23.2544	8.80902	#	H
64	1	1	0	2.70767	22.8681	6.58518	#	H
65	1	1	0	5.97962	21.2904	8.98042	#	H
66	1	1	0	4.59291	21.5976	10.9769	#	H
67	1	1	0	26.5982	18.3412	16.9108	#	H
68	1	1	0	21.4861	23.7243	20.5728	#	H
69	1	1	0	25.4933	24.1589	17.3738	#	H
70	1	1	0	24.6777	23.6715	19.6929	#	H
71	1	1	0	21.8144	20.8202	17.9886	#	H
72	1	1	0	22.5509	21.483	15.6873	#	H
73	1	1	0	11.6406	24.6218	18.64	#	H
74	1	1	0	6.85124	20.4505	23.2636	#	H
75	1	1	0	9.62604	24.9823	23.7483	#	H
76	1	1	0	7.44474	23.9396	23.3239	#	H
77	1	1	0	9.36142	20.9707	20.779	#	H
78	1	1	0	11.5949	22.0415	21.2775	#	H
79	1	1	0	16.6549	0.877158	19.8113	#	H
80	1	1	0	20.3715	6.13161	23.5314	#	H
81	1	1	0	17.5762	2.1795	24.3396	#	H
82	1	1	0	19.7096	3.17605	23.7617	#	H
83	1	1	0	18.0826	5.01304	20.2351	#	H
84	1	1	0	15.8425	4.17315	20.8867	#	H
85	1	1	0	16.2555	1.42806	8.38436	#	H
86	1	1	0	20.7124	20.9284	3.3189	#	H
87	1	1	0	17.6303	24.8982	2.6734	#	H
88	1	1	0	19.8333	23.8485	3.05817	#	H
89	1	1	0	18.3811	21.3256	6.01836	#	H
90	1	1	0	16.2444	22.5896	6.02287	#	H
91	1	1	0	11.4392	1.86074	7.43772	#	H
92	1	1	0	7.07507	6.45386	3.51559	#	H
93	1	1	0	9.7141	2.12291	2.5895	#	H
94	1	1	0	7.6973	3.62583	2.86459	#	H
95	1	1	0	9.51444	5.41381	6.24703	#	H
96	1	1	0	11.71	4.3539	5.57386	#	H
97	1	1	0	19.4094	11.3324	24.6199	#	H
98	1	1	0	23.3551	7.08513	20.5131	#	H
99	1	1	0	23.4256	9.17715	25.5235	#	H
100	1	1	0	22.7334	7.16228	24.5065	#	H
101	1	1	0	21.3802	9.30752	21.0702	#	H
102	1	1	0	21.9502	11.5008	22.1718	#	H
103	1	1	0	20.6049	16.4568	0.48887	#	H
104	1	1	0	23.5712	20.1894	6.42347	#	H
105	1	1	0	24.4815	17.5379	1.96277	#	H
106	1	1	0	24.3416	19.6885	3.19325	#	H
107	1	1	0	20.8614	18.2291	5.04174	#	H
108	1	1	0	21.2609	16.0386	4.32669	#	H
109	1	1	0	8.62566	16.4626	25.8225	#	H
110	1	1	0	3.94481	19.9803	20.1045	#	H
111	1	1	0	2.58991	17.2303	24.219	#	H
112	1	1	0	3.12331	19.4804	23.3203	#	H
113	1	1	0	6.37533	17.6925	21.1268	#	H
114	1	1	0	5.77203	15.5298	22.1976	#	H
115	1	1	0	7.47158	10.6374	1.72419	#	H
116	1	1	0	4.05229	6.87458	6.51681	#	H
117	1	1	0	3.20731	9.43751	1.96904	#	H
118	1	1	0	3.50079	7.41255	3.37521	#	H
119	1	1	0	6.9225	9.22663	5.27062	#	H
120	1	1	0	6.31027	11.3927	4.27027	#	H
121	1	1	0	27.4829	19.8672	10.9513	#	H
122	1	1	0	21.011	23.4998	6.88826	#	H
123	1	1	0	25.8547	23.7424	9.13549	#	H
124	1	1	0	24.5548	23.5131	6.9943	#	H
125	1	1	0	21.659	21.265	9.12052	#	H
126	1	1	0	22.8261	21.5624	11.1737	#	H
127	1	1	0	1.10805	18.216	16.2685	#	H
128	1	1	0	6.63022	23.3119	20.0557	#	H
129	1	1	0	2.82495	24.3775	17.0882	#	H
130	1	1	0	3.97537	24.0067	19.2472	#	H
131	1	1	0	5.28395	20.2096	17.8462	#	H
132	1	1	0	4.561	20.7358	15.547	#	H
133	1	1	0	27.9931	8.43232	15.6576	#	H
134	1	1	0	20.6889	3.73232	19.9787	#	H
135	1	1	0	25.1603	2.88968	17.7301	#	H
136	1	1	0	23.9445	3.3433	19.7772	#	H
137	1	1	0	21.8114	6.43302	17.6992	#	H
138	1	1	0	22.9072	5.84381	15.6486	#	H
139	1	1	0	1.36932	6.91375	10.1984	#	H
140	1	1	0	6.89763	3.55679	6.76749	#	H
141	1	1	0	2.53829	2.60386	9.34034	#	H
142	1	1	0	3.58971	3.28091	7.09886	#	H
143	1	1	0	5.83435	6.30498	9.09885	#	H
144	1	1	0	4.98216	5.50694	11.3919	#	H
145	1	1	0	14.8636	25.4786	10.1459	#	H
146	1	1	0	16.5686	0.392814	6.92911	#	H
147	1	1	0	12.4099	25.6246	10.1003	#	H
148	1	1	0	10.6214	0.66522	8.76711	#	H
149	1	1	0	12.4078	1.64612	17.0134	#	H
150	1	1	0	10.6397	26.0101	17.9801	#	H
151	1	1	0	14.9629	1.8173	17.019	#	H
152	1	1	0	16.8315	0.467477	18.1299	#	H
153	1	1	0	10.0782	14.8645	1.28374	#	H
154	1	1	0	6.92562	16.0928	25.9038	#	H
155	1	1	0	10.1408	12.2977	1.50944	#	H
156	1	1	0	8.79939	10.2519	0.684062	#	H
157	1	1	0	16.9817	12.7161	26.1945	#	H
158	1	1	0	18.4407	10.674	25.8226	#	H
159	1	1	0	17.0516	15.028	1.10522	#	H
160	1	1	0	18.8501	16.9211	1.13894	#	H
161	1	1	0	2.73982	9.32767	14.5209	#	H
162	1	1	0	1.39543	8.40188	16.2064	#	H
163	1	1	0	2.4865	9.55044	12.0542	#	H
164	1	1	0	1.08167	8.72649	10.3045	#	H
165	1	1	0	51.0502	17.0148	12.3965	#	H
166	1	1	0	51.8809	18.1952	10.4261	#	H
167	1	1	0	51.5721	17.1051	14.7657	#	H
168	1	1	0	0.992928	20.056	16.1304	#	H
169	1	1	0	4.06029	13.2505	21.3099	#	H
170	1	1	0	8.08054	19.0876	16.407	#	H
171	1	1	0	5.07086	14.8862	15.6088	#	H
172	1	1	0	7.29752	15.7015	16.1259	#	H
173	1	1	0	5.5656	18.3532	18.9775	#	H
174	1	1	0	3.29512	17.4742	18.5242	#	H
175	1	1	0	23.9953	13.0933	20.213	#	H
176	1	1	0	19.4962	8.06728	16.3171	#	H
177	1	1	0	22.4564	12.7437	16.4909	#	H
178	1	1	0	20.3043	11.67	16.7549	#	H
179	1	1	0	22.059	8.46653	18.8919	#	H
180	1	1	0	24.2613	9.27595	18.2475	#	H
181	1	1	0	24.5251	14.3221	5.43087	#	H
182	1	1	0	20.4146	19.4392	10.4269	#	H
183	1	1	0	23.4646	16.0866	11.4716	#	H
184	1	1	0	21.4379	17.3094	10.9858	#	H
185	1	1	0	22.4226	17.9587	6.88733	#	H
186	1	1	0	24.5227	16.7287	7.25208	#	H
187	1	1	0	3.46857	13.4854	6.89221	#	H
188	1	1	0	7.55216	7.34542	10.6143	#	H
189	1	1	0	4.7072	11.628	11.1341	#	H
190	1	1	0	6.83854	10.4498	11.0124	#	H
191	1	1	0	5.57607	8.69079	7.27743	#	H
192	1	1	0	3.2958	9.46936	7.54209	#	H
193	1	1	0	20.2936	3.42236	13.0719	#	H
194	1	1	0	16.9484	7.16175	19.6718	#	H
195	1	1	0	15.6159	4.37463	15.4763	#	H
196	1	1	0	15.9292	6.59799	16.5435	#	H
197	1	1	0	19.5867	5.28688	18.3736	#	H
198	1	1	0	19.3803	3.1133	17.1852	#	H
199	1	1	0	22.0343	23.654	14.6274	#	H
200	1	1	0	16.9417	19.6634	7.95546	#	H
201	1	1	0	15.9789	22.3287	12.008	#	H
202	1	1	0	16.8232	20.245	11.315	#	H
203	1	1	0	19.1199	22.2975	8.34978	#	H
204	1	1	0	18.7968	24.3106	9.52616	#	H
205	1	1	0	6.05073	24.5022	15.0324	#	H
206	1	1	0	10.8709	19.5035	19.5611	#	H
207	1	1	0	11.6193	22.4592	15.2223	#	H
208	1	1	0	11.6308	20.3841	16.4666	#	H
209	1	1	0	7.92869	21.4808	18.4124	#	H
210	1	1	0	8.0528	23.7829	17.2853	#	H
211	1	1	0	7.32219	3.38354	13.2644	#	H
212	1	1	0	10.9371	7.14597	7.90256	#	H
213	1	1	0	11.6	4.17407	11.9712	#	H
214	1	1	0	11.122	6.39353	11.1319	#	H
215	1	1	0	8.05286	4.8307	8.63933	#	H
216	1	1	0	8.38452	2.52711	9.49771	#	H
217	1	1	0	13.0962	21.5606	3.67239	#	H
218	1	1	0	19.9863	16.8763	7.09364	#	H
219	1	1	0	15.324	15.8709	4.81949	#	H
220	1	1	0	16.3077	16.5057	6.93675	#	H
221	1	1	0	18.7923	19.3577	4.87239	#	H
222	1	1	0	17.6867	18.9022	2.84775	#	H
223	1	1	0	12.8936	21.1262	23.3933	#	H
224	1	1	0	7.95622	16.3282	19.6848	#	H
225	1	1	0	12.1594	15.136	22.5028	#	H
226	1	1	0	11.5584	16.0961	20.3382	#	H
227	1	1	0	8.69757	18.6703	22.164	#	H
228	1	1	0	9.80592	18.1685	24.3526	#	H
229	1	1	0	15.4412	6.43667	24.6439	#	H
230	1	1	0	19.369	10.7292	19.5864	#	H
231	1	1	0	14.9211	11.312	22.3979	#	H
232	1	1	0	15.9917	10.9002	20.2724	#	H
233	1	1	0	18.5647	7.9039	21.9437	#	H
234	1	1	0	17.4576	8.22443	24.1527	#	H
235	1	1	0	12.2211	6.82425	3.28464	#	H
236	1	1	0	8.25014	10.4832	7.68298	#	H
237	1	1	0	12.6978	10.8691	4.71501	#	H
238	1	1	0	11.5552	10.5434	6.90282	#	H
239	1	1	0	8.69451	7.85119	5.20159	#	H
240	1	1	0	9.70607	8.26138	2.9324	#	H
241	1	1	0	24.0712	13.1307	6.86888	#	H
242	1	1	0	19.8427	7.4399	10.3568	#	H
243	1	1	0	22.9418	11.6603	11.3439	#	H
244	1	1	0	20.6795	10.7299	10.9965	#	H
245	1	1	0	22.0263	8.5449	7.55905	#	H
246	1	1	0	24.3277	9.53141	7.82103	#	H
247	1	1	0	3.65539	13.7897	5.13866	#	H
248	1	1	0	7.04118	19.2833	10.1626	#	H
249	1	1	0	4.78969	14.8216	10.9919	#	H
250	1	1	0	6.77658	16.1462	10.5114	#	H
251	1	1	0	4.49242	18.5044	7.72861	#	H
252	1	1	0	2.40789	17.3748	8.45122	#	H
253	1	1	0	3.55505	14.9021	20.6816	#	H
254	1	1	0	7.53	7.63011	16.5793	#	H
255	1	1	0	5.07272	12.3972	15.9511	#	H
256	1	1	0	7.30433	11.3084	16.2326	#	H
257	1	1	0	5.34081	8.32089	18.7839	#	H
258	1	1	0	3.16752	9.4066	18.4668	#	H
259	1	1	0	23.8314	13.3094	21.9292	#	H
260	1	1	0	20.2077	19.4512	16.8258	#	H
261	1	1	0	22.6457	15.0927	15.7852	#	H
262	1	1	0	20.4444	16.0655	16.4849	#	H
263	1	1	0	22.4244	18.4779	19.4495	#	H
264	1	1	0	24.5232	17.4555	18.9254	#	H
265	1	1	0	7.18681	23.6693	13.8864	#	H
266	1	1	0	10.4907	19.409	7.56053	#	H
267	1	1	0	9.95289	21.7985	12.8202	#	H
268	1	1	0	9.68231	19.7145	11.6045	#	H
269	1	1	0	8.9491	22.0775	7.96173	#	H
270	1	1	0	9.1455	24.1543	9.41275	#	H
271	1	1	0	6.56151	2.84801	14.7775	#	H
272	1	1	0	10.9523	7.28024	19.0216	#	H
273	1	1	0	11.9866	4.31324	15.2722	#	H
274	1	1	0	11.3903	6.73684	15.8717	#	H
275	1	1	0	8.17872	5.16581	18.2609	#	H
276	1	1	0	8.46467	2.93404	17.2162	#	H
277	1	1	0	21.319	2.38239	11.8757	#	H
278	1	1	0	16.7186	7.0771	7.53942	#	H
279	1	1	0	15.4695	4.02076	11.4487	#	H
280	1	1	0	15.8469	6.183	10.2275	#	H
281	1	1	0	19.6305	4.925	8.76008	#	H
282	1	1	0	19.2099	2.73132	9.57238	#	H
283	1	1	0	21.3154	23.9958	12.9198	#	H
284	1	1	0	16.7636	19.8194	19.3623	#	H
285	1	1	0	15.9482	22.585	15.2172	#	H
286	1	1	0	16.2444	20.4868	16.5643	#	H
287	1	1	0	19.9512	21.8823	18.2106	#	H
288	1	1	0	19.5607	24.0498	17.189	#	H
289	1	1	0	14.1445	7.15756	23.4975	#	H
290	1	1	0	8.1813	10.4915	19.6473	#	H
291	1	1	0	11.9816	11.4773	22.7153	#	H
292	1	1	0	11.5672	10.8508	20.318	#	H
293	1	1	0	9.32052	7.52065	21.6054	#	H
294	1	1	0	9.9623	7.88857	23.9459	#	H
295	1	1	0	14.0993	6.50846	3.18639	#	H
296	1	1	0	19.5869	10.208	7.11942	#	H
297	1	1	0	15.1054	11.15	4.65639	#	H
298	1	1	0	16.4634	10.9623	6.62849	#	H
299	1	1	0	18.4875	7.67325	4.90198	#	H
300	1	1	0	17.2775	7.94534	2.82268	#	H
301	1	1	0	14.6304	21.2807	2.8018	#	H
302	1	1	0	7.34524	16.589	6.94359	#	H
303	1	1	0	12.4277	15.9097	4.84583	#	H
304	1	1	0	11.2195	16.5753	6.91297	#	H
305	1	1	0	8.26051	18.532	4.50941	#	H
306	1	1	0	9.34597	17.8042	2.46132	#	H
307	1	1	0	13.4281	19.5054	23.7154	#	H
308	1	1	0	19.5048	16.7794	20.1793	#	H
309	1	1	0	14.757	16.3558	22.5206	#	H
310	1	1	0	15.8638	16.6604	20.2804	#	H
311	1	1	0	18.9343	18.9697	22.3141	#	H
312	1	1	0	17.8316	18.3835	24.4782	#	H
313	1	1	0	2.2304	12.7698	22.8653	#	H
314	1	1	0	3.73866	13.5099	19.5548	#	H
315	1	1	0	25.7464	14.434	23.0315	#	H
316	1	1	0	24.8716	12.0332	21.5364	#	H
317	1	1	0	25.5071	11.977	3.70837	#	H
318	1	1	0	23.544	12.6994	5.19237	#	H
319	1	1	0	1.56187	14.571	3.83181	#	H
320	1	1	0	3.07721	12.1756	5.80583	#	H
321	1	1	0	23.0517	2.12466	14.9983	#	H
322	1	1	0	21.9659	3.60417	13.19	#	H
323	1	1	0	23.1918	25.6865	15.1487	#	H
324	1	1	0	20.2458	23.6702	14.2087	#	H
325	1	1	0	4.11958	25.3796	12.6146	#	H
326	1	1	0	5.3766	23.3812	13.7793	#	H
327	1	1	0	4.24881	1.7517	12.5501	#	H
328	1	1	0	5.59428	3.5143	13.4655	#	H
329	1	1	0	11.8873	22.6456	1.71111	#	H
330	1	1	0	13.766	19.8882	3.25662	#	H
331	1	1	0	11.9638	22.6188	25.247	#	H
332	1	1	0	14.4103	21.0523	24.1173	#	H
333	1	1	0	12.5352	4.24713	24.8564	#	H
334	1	1	0	14.4292	5.37767	23.5654	#	H
335	1	1	0	11.8666	4.11508	1.09441	#	H
336	1	1	0	12.952	5.25537	3.4108	#	H
337	1	2	0	15.1798	1.68346	3.20027	#	O
338	1	2	0	15.0917	1.74723	5.39504	#	O
339	1	2	0	12.3564	24.9477	3.14301	#	O
340	1	2	0	12.3097	25.0567	5.37394	#	O
341	1	2	0	12.5369	1.50426	23.6098	#	O
342	1	2	0	12.3325	1.31904	21.409	#	O
343	1	2	0	15.0414	24.7446	23.7068	#	O
344	1	2	0	15.2549	24.9744	21.505	#	O
345	1	2	0	3.37824	14.6991	1.48202	#	O
346	1	2	0	5.583	14.8278	1.32565	#	O
347	1	2	0	3.3157	11.9137	24.8737	#	O
348	1	2	0	5.51373	11.8329	24.9657	#	O
349	1	2	0	23.7886	12.1927	1.82372	#	O
350	1	2	0	21.6183	12.1303	1.60021	#	O
351	1	2	0	24.0745	14.8392	25.0822	#	O
352	1	2	0	21.9307	14.9811	25.1767	#	O
353	1	2	0	2.26965	2.82421	14.5612	#	O
354	1	2	0	2.16726	5.01897	14.6421	#	O
355	1	2	0	25.3996	3.13068	12.2221	#	O
356	1	2	0	25.3574	5.27111	12.121	#	O
357	1	2	0	1.97432	23.8011	11.8869	#	O
358	1	2	0	1.83077	21.6336	11.8338	#	O
359	1	2	0	25.4883	23.7592	14.7025	#	O
360	1	2	0	25.2624	21.5492	14.7042	#	O
361	1	2	0	12.4242	24.8362	23.6238	#	O
362	1	2	0	12.6032	24.6392	21.4296	#	O
363	1	2	0	15.1782	1.3921	23.6605	#	O
364	1	2	0	14.9384	1.65839	21.518	#	O
365	1	2	0	15.0254	25.0175	3.22237	#	O
366	1	2	0	15.0125	25.0349	5.42016	#	O
367	1	2	0	12.4408	1.71326	3.08109	#	O
368	1	2	0	12.4317	1.71729	5.27876	#	O
369	1	2	0	23.8641	12.1573	25.229	#	O
370	1	2	0	21.6969	12.381	25.0137	#	O
371	1	2	0	24.0033	14.9239	1.72634	#	O
372	1	2	0	21.8088	14.8473	1.86748	#	O
373	1	2	0	3.26136	14.7131	24.8635	#	O
374	1	2	0	5.44031	14.5746	24.6542	#	O
375	1	2	0	3.42379	12.0104	1.60394	#	O
376	1	2	0	5.6119	12.192	1.64137	#	O
377	1	2	0	25.6666	23.6238	11.9977	#	O
378	1	2	0	25.7228	21.4334	12.0934	#	O
379	1	2	0	2.18975	23.6799	14.6537	#	O
380	1	2	0	2.18591	21.5009	14.513	#	O
381	1	2	0	25.5875	3.19416	14.9874	#	O
382	1	2	0	25.4034	5.3993	14.7931	#	O
383	1	2	0	2.13961	2.85685	11.8651	#	O
384	1	2	0	2.33456	5.02558	11.9724	#	O
385	1	2	0	2.40556	14.8249	15.9942	#	O
386	1	2	0	2.22189	14.9972	18.1647	#	O
387	1	2	0	25.3592	12.1024	16.1644	#	O
388	1	2	0	25.3333	12.1258	18.3583	#	O
389	1	2	0	25.5098	14.5599	10.5363	#	O
390	1	2	0	25.4869	14.464	8.34638	#	O
391	1	2	0	2.12017	11.8282	10.6795	#	O
392	1	2	0	2.14821	11.8994	8.45521	#	O
393	1	2	0	16.4721	1.91324	14.9156	#	O
394	1	2	0	18.6449	1.98816	14.858	#	O
395	1	2	0	16.4626	25.0782	12.3901	#	O
396	1	2	0	18.6602	25.0898	12.3756	#	O
397	1	2	0	10.9838	25.1714	15.096	#	O
398	1	2	0	8.79006	25.1084	15.0052	#	O
399	1	2	0	11.0219	1.40649	11.937	#	O
400	1	2	0	8.89746	1.69081	12.1819	#	O
401	1	2	0	15.1568	16.0777	2.12028	#	O
402	1	2	0	15.0503	18.2845	1.93627	#	O
403	1	2	0	12.5421	15.7714	25.41	#	O
404	1	2	0	12.2518	17.9469	25.3635	#	O
405	1	2	0	14.7669	10.8983	25.1206	#	O
406	1	2	0	14.9006	8.75119	25.1958	#	O
407	1	2	0	12.2773	10.8894	1.94892	#	O
408	1	2	0	12.2412	8.6915	1.86866	#	O
409	1	2	0	25.4598	11.8662	10.6363	#	O
410	1	2	0	25.378	11.748	8.40061	#	O
411	1	2	0	2.01643	14.4931	10.8373	#	O
412	1	2	0	1.92587	14.6466	8.63997	#	O
413	1	2	0	2.28233	12.1581	16.0606	#	O
414	1	2	0	2.21939	12.2401	18.2106	#	O
415	1	2	0	25.3127	14.8519	16.2385	#	O
416	1	2	0	25.379	14.8153	18.4039	#	O
417	1	2	0	10.8609	24.7099	12.4044	#	O
418	1	2	0	8.66835	24.938	12.3434	#	O
419	1	2	0	11.15	1.77487	14.6614	#	O
420	1	2	0	8.95533	1.78546	14.9229	#	O
421	1	2	0	16.4535	1.75316	12.2688	#	O
422	1	2	0	18.6271	1.78093	12.1801	#	O
423	1	2	0	16.5238	25.275	15.027	#	O
424	1	2	0	18.7124	25.2705	15.078	#	O
425	1	2	0	12.0304	10.9039	25.341	#	O
426	1	2	0	12.2382	8.73555	25.2077	#	O
427	1	2	0	15.0046	10.8184	1.85192	#	O
428	1	2	0	14.898	8.67145	1.86218	#	O
429	1	2	0	12.4495	15.7979	1.99478	#	O
430	1	2	0	12.3079	17.9818	2.03407	#	O
431	1	2	0	15.2598	15.9977	25.4438	#	O
432	1	2	0	14.9647	18.2154	25.323	#	O
433	1	3	0	15.6321	2.07191	4.31727	#	C
434	1	3	0	20.5502	4.91102	5.10393	#	C
435	1	3	0	21.0665	5.98306	4.37059	#	C
436	1	3	0	16.8437	2.93438	4.35215	#	C
437	1	3	0	17.9349	2.5904	3.57708	#	C
438	1	3	0	19.0777	3.32706	3.71177	#	C
439	1	3	0	19.2315	4.32774	4.67663	#	C
440	1	3	0	18.0409	4.77076	5.34121	#	C
441	1	3	0	16.9077	4.00094	5.24796	#	C
442	1	3	0	11.8871	24.5663	4.27264	#	C
443	1	3	0	7.02055	21.7177	4.93154	#	C
444	1	3	0	6.41954	20.7375	4.10471	#	C
445	1	3	0	10.6942	23.6826	4.24879	#	C
446	1	3	0	9.54927	24.1335	3.58732	#	C
447	1	3	0	8.36653	23.4142	3.71943	#	C
448	1	3	0	8.33249	22.2593	4.5593	#	C
449	1	3	0	9.48881	21.7277	5.11193	#	C
450	1	3	0	10.6851	22.4766	5.01258	#	C
451	1	3	0	12.0172	1.88382	22.4927	#	C
452	1	3	0	7.23658	4.72472	21.7433	#	C
453	1	3	0	6.66735	5.9422	22.3314	#	C
454	1	3	0	10.959	2.90755	22.5073	#	C
455	1	3	0	10.0575	2.94395	23.5396	#	C
456	1	3	0	8.88946	3.68892	23.3598	#	C
457	1	3	0	8.63669	4.28623	22.1403	#	C
458	1	3	0	9.67565	4.47801	21.2685	#	C
459	1	3	0	10.7614	3.70339	21.402	#	C
460	1	3	0	15.6443	24.4566	22.6071	#	C
461	1	3	0	20.8308	22.1557	22.0014	#	C
462	1	3	0	21.396	21.0115	22.6569	#	C
463	1	3	0	16.9657	23.8062	22.5688	#	C
464	1	3	0	18.1454	24.4739	23.0593	#	C
465	1	3	0	19.4041	23.894	22.8954	#	C
466	1	3	0	19.518	22.6717	22.3097	#	C
467	1	3	0	18.4366	22.1446	21.5647	#	C
468	1	3	0	17.1269	22.72	21.7119	#	C
469	1	3	0	4.47585	15.211	1.83193	#	C
470	1	3	0	5.2157	20.1452	4.51556	#	C
471	1	3	0	4.55647	20.692	5.62207	#	C
472	1	3	0	4.46917	16.4185	2.67851	#	C
473	1	3	0	3.64332	17.5118	2.39182	#	C
474	1	3	0	3.93089	18.7819	2.87827	#	C
475	1	3	0	4.85599	18.871	3.93426	#	C
476	1	3	0	5.50517	17.723	4.40984	#	C
477	1	3	0	5.36706	16.5098	3.766	#	C
478	1	3	0	4.4159	11.3792	24.5265	#	C
479	1	3	0	5.56581	6.58122	21.7481	#	C
480	1	3	0	5.04466	6.1121	20.527	#	C
481	1	3	0	4.45678	10.2765	23.6029	#	C
482	1	3	0	3.62505	9.17287	23.7277	#	C
483	1	3	0	3.92969	7.97931	23.0045	#	C
484	1	3	0	5.08926	7.89484	22.2544	#	C
485	1	3	0	5.85587	8.99358	22.0751	#	C
486	1	3	0	5.57434	10.228	22.734	#	C
487	1	3	0	22.6679	11.6966	2.14646	#	C
488	1	3	0	22.193	6.70792	4.93612	#	C
489	1	3	0	22.8436	6.27785	6.12167	#	C
490	1	3	0	22.6252	10.4747	2.99375	#	C
491	1	3	0	23.6666	9.50769	2.88492	#	C
492	1	3	0	23.6198	8.28712	3.60776	#	C
493	1	3	0	22.4839	8.03526	4.41002	#	C
494	1	3	0	21.476	9.03725	4.5998	#	C
495	1	3	0	21.5187	10.221	3.76669	#	C
496	1	3	0	23.0034	15.3062	24.6234	#	C
497	1	3	0	22.4066	20.2966	22.0354	#	C
498	1	3	0	23.1344	20.8284	20.9524	#	C
499	1	3	0	23.0056	16.4593	23.6837	#	C
500	1	3	0	23.9291	17.4787	23.9553	#	C
501	1	3	0	23.7989	18.6946	23.2675	#	C
502	1	3	0	22.6764	18.9419	22.4919	#	C
503	1	3	0	21.7851	17.8889	22.1803	#	C
504	1	3	0	21.9192	16.6836	22.8896	#	C
505	1	3	0	2.68426	3.94097	15.066	#	C
506	1	3	0	5.58232	4.96729	19.8799	#	C
507	1	3	0	6.68592	4.27458	20.4898	#	C
508	1	3	0	3.61587	3.97269	16.2102	#	C
509	1	3	0	3.39023	3.19614	17.3647	#	C
510	1	3	0	4.07756	3.53046	18.547	#	C
511	1	3	0	5.03594	4.50528	18.5575	#	C
512	1	3	0	5.34558	5.21879	17.4125	#	C
513	1	3	0	4.68013	4.88098	16.1881	#	C
514	1	3	0	25.0614	4.16958	11.6311	#	C
515	1	3	0	22.3283	5.13145	6.74815	#	C
516	1	3	0	21.177	4.48484	6.28078	#	C
517	1	3	0	24.1168	4.12572	10.5791	#	C
518	1	3	0	24.4015	3.32704	9.4181	#	C
519	1	3	0	23.8749	3.68158	8.16612	#	C
520	1	3	0	22.913	4.70953	8.05943	#	C
521	1	3	0	22.4562	5.33073	9.23585	#	C
522	1	3	0	23.0728	5.05503	10.4761	#	C
523	1	3	0	2.25441	22.7125	11.283	#	C
524	1	3	0	5.10545	21.7314	6.38616	#	C
525	1	3	0	6.36973	22.244	6.038	#	C
526	1	3	0	3.07765	22.6992	10.065	#	C
527	1	3	0	2.46623	22.9772	8.80993	#	C
528	1	3	0	3.20615	22.7318	7.60773	#	C
529	1	3	0	4.45637	22.1546	7.6559	#	C
530	1	3	0	5.00217	21.7958	8.89569	#	C
531	1	3	0	4.29284	22.0819	10.101	#	C
532	1	3	0	24.9375	22.7062	15.1727	#	C
533	1	3	0	22.6511	21.9879	20.3349	#	C
534	1	3	0	21.6507	22.7466	20.9443	#	C
535	1	3	0	24.1485	22.7922	16.4111	#	C
536	1	3	0	24.6637	23.5493	17.5227	#	C
537	1	3	0	24.1856	23.2644	18.8187	#	C
538	1	3	0	23.0988	22.3392	18.9705	#	C
539	1	3	0	22.6134	21.595	17.8576	#	C
540	1	3	0	23.0055	21.9463	16.6018	#	C
541	1	3	0	12.0234	24.352	22.5129	#	C
542	1	3	0	6.96037	21.877	21.6162	#	C
543	1	3	0	6.41357	20.7769	22.2917	#	C
544	1	3	0	10.7781	23.5455	22.5568	#	C
545	1	3	0	9.61084	24.0424	23.1927	#	C
546	1	3	0	8.34892	23.491	22.8414	#	C
547	1	3	0	8.289	22.3611	22.0265	#	C
548	1	3	0	9.4616	21.8613	21.4444	#	C
549	1	3	0	10.6981	22.4538	21.681	#	C
550	1	3	0	15.5283	1.96615	22.5864	#	C
551	1	3	0	20.3409	4.88776	21.7622	#	C
552	1	3	0	20.8502	5.91731	22.5697	#	C
553	1	3	0	16.6449	2.94323	22.5663	#	C
554	1	3	0	17.6536	2.85266	23.502	#	C
555	1	3	0	18.9159	3.40241	23.1765	#	C
556	1	3	0	19.064	4.22577	22.0183	#	C
557	1	3	0	17.9335	4.50339	21.186	#	C
558	1	3	0	16.7218	3.85794	21.4632	#	C
559	1	3	0	15.5317	24.6794	4.34547	#	C
560	1	3	0	20.7184	22.3121	5.02351	#	C
561	1	3	0	21.2657	21.3033	4.1897	#	C
562	1	3	0	16.8159	23.9528	4.39925	#	C
563	1	3	0	17.8473	24.223	3.52428	#	C
564	1	3	0	19.1089	23.5982	3.72932	#	C
565	1	3	0	19.3287	22.776	4.77013	#	C
566	1	3	0	18.2681	22.2474	5.47664	#	C
567	1	3	0	17.0081	22.8685	5.33971	#	C
568	1	3	0	11.9541	2.15738	4.18392	#	C
569	1	3	0	7.18266	5.03122	5.14239	#	C
570	1	3	0	6.66756	6.10825	4.48855	#	C
571	1	3	0	10.8391	3.09562	4.16482	#	C
572	1	3	0	9.65509	2.80554	3.43716	#	C
573	1	3	0	8.52033	3.61769	3.58977	#	C
574	1	3	0	8.46283	4.48689	4.70778	#	C
575	1	3	0	9.61425	4.75299	5.40566	#	C
576	1	3	0	10.7881	4.0841	5.14852	#	C
577	1	3	0	22.7766	11.7578	24.7302	#	C
578	1	3	0	21.8078	6.83501	22.0698	#	C
579	1	3	0	22.5076	6.5169	20.8796	#	C
580	1	3	0	22.7104	10.4988	23.929	#	C
581	1	3	0	23.0615	9.2805	24.5102	#	C
582	1	3	0	22.6995	8.06148	23.9025	#	C
583	1	3	0	22.0256	8.09979	22.7458	#	C
584	1	3	0	21.8078	9.31241	22.0476	#	C
585	1	3	0	22.1163	10.5206	22.6864	#	C
586	1	3	0	22.9265	15.3769	2.23056	#	C
587	1	3	0	22.3095	20.4904	4.69145	#	C
588	1	3	0	22.9191	20.8634	5.88359	#	C
589	1	3	0	22.9252	16.5964	3.01938	#	C
590	1	3	0	23.7524	17.6833	2.69266	#	C
591	1	3	0	23.5684	18.9411	3.24725	#	C
592	1	3	0	22.5679	19.1385	4.11751	#	C
593	1	3	0	21.6782	18.1068	4.4319	#	C
594	1	3	0	21.8949	16.822	3.88144	#	C
595	1	3	0	4.32639	15.1169	24.3213	#	C
596	1	3	0	5.25714	20.1389	21.7824	#	C
597	1	3	0	4.70191	20.6271	20.629	#	C
598	1	3	0	4.3606	16.3364	23.5433	#	C
599	1	3	0	3.45414	17.3667	23.6808	#	C
600	1	3	0	3.74195	18.6155	23.1184	#	C
601	1	3	0	4.85934	18.7404	22.2997	#	C
602	1	3	0	5.58001	17.619	21.8672	#	C
603	1	3	0	5.31387	16.4258	22.4931	#	C
604	1	3	0	4.5318	11.744	2.14378	#	C
605	1	3	0	5.63137	6.89233	5.06674	#	C
606	1	3	0	4.91785	6.3382	6.17383	#	C
607	1	3	0	4.66848	10.6099	3.06979	#	C
608	1	3	0	3.89108	9.48253	2.86301	#	C
609	1	3	0	4.07611	8.28013	3.62146	#	C
610	1	3	0	5.24072	8.1609	4.48452	#	C
611	1	3	0	6.06679	9.33142	4.63316	#	C
612	1	3	0	5.69759	10.5397	4.02753	#	C
613	1	3	0	25.2964	22.5448	11.5605	#	C
614	1	3	0	22.4759	21.9661	6.63466	#	C
615	1	3	0	21.3616	22.6672	6.24237	#	C
616	1	3	0	24.4972	22.5446	10.3534	#	C
617	1	3	0	24.9999	23.162	9.17443	#	C
618	1	3	0	24.2705	23.0009	7.93322	#	C
619	1	3	0	23.0945	22.2598	7.91125	#	C
620	1	3	0	22.5779	21.7995	9.13276	#	C
621	1	3	0	23.2789	21.8912	10.3187	#	C
622	1	3	0	2.6471	22.5846	15.0345	#	C
623	1	3	0	5.17658	21.7383	19.972	#	C
624	1	3	0	6.27424	22.4429	20.5556	#	C
625	1	3	0	3.56231	22.5647	16.193	#	C
626	1	3	0	3.45582	23.5134	17.2447	#	C
627	1	3	0	4.00923	23.2651	18.4823	#	C
628	1	3	0	4.69761	22.0924	18.6945	#	C
629	1	3	0	4.87243	21.1599	17.6109	#	C
630	1	3	0	4.33671	21.4109	16.3645	#	C
631	1	3	0	25.098	4.30175	15.3791	#	C
632	1	3	0	22.1028	5.37925	20.1545	#	C
633	1	3	0	21.0033	4.60367	20.5658	#	C
634	1	3	0	24.2427	4.37298	16.5686	#	C
635	1	3	0	24.4165	3.60485	17.7368	#	C
636	1	3	0	23.7709	3.93264	18.9284	#	C
637	1	3	0	22.8261	4.99678	18.9052	#	C
638	1	3	0	22.5038	5.61284	17.7097	#	C
639	1	3	0	23.1631	5.28951	16.522	#	C
640	1	3	0	2.73857	3.92394	11.5313	#	C
641	1	3	0	5.35427	5.17002	6.75248	#	C
642	1	3	0	6.49847	4.43766	6.23559	#	C
643	1	3	0	3.73493	3.98327	10.419	#	C
644	1	3	0	3.36424	3.29939	9.28898	#	C
645	1	3	0	3.93726	3.64616	8.05466	#	C
646	1	3	0	4.81363	4.75219	7.99534	#	C
647	1	3	0	5.1169	5.49496	9.14055	#	C
648	1	3	0	4.72325	4.99685	10.4138	#	C
649	1	3	0	14.7314	25.9714	8.03791	#	C
650	1	4	0	16.1179	0.418143	7.91567	#	C
651	1	3	0	12.5972	26.1966	8.03328	#	C
652	1	4	0	11.2356	0.834119	7.81357	#	C
653	1	3	0	12.7076	0.511808	18.7964	#	C
654	1	4	0	11.3468	25.7404	18.807	#	C
655	1	3	0	14.7933	0.704759	18.8026	#	C
656	1	4	0	16.2062	26.3007	18.9617	#	C
657	1	3	0	8.18004	14.4178	26.3522	#	C
658	1	4	0	7.85535	15.7228	25.5969	#	C
659	1	3	0	8.18448	12.3817	0.777999	#	C
660	1	4	0	7.91228	10.8768	0.751135	#	C
661	1	3	0	19.0298	12.6623	26.3828	#	C
662	1	4	0	19.3267	11.27	25.743	#	C
663	1	3	0	19.1484	14.7512	0.769354	#	C
664	1	4	0	19.4816	16.1898	26.44	#	C
665	1	3	0	1.57176	7.57062	14.2885	#	C
666	1	4	0	0.939981	7.59282	15.6289	#	C
667	1	3	0	1.55336	7.63771	12.1567	#	C
668	1	4	0	0.88803	7.70246	10.8129	#	C
669	1	3	0	51.8303	19.0161	12.3577	#	C
670	1	4	0	51.9698	19.1622	10.8648	#	C
671	1	3	0	52.392	19.042	14.4234	#	C
672	1	4	0	1.23135	19.1333	15.6128	#	C
673	1	3	0	2.80948	15.3135	17.069	#	C
674	1	3	0	7.90979	17.6519	17.9777	#	C
675	1	3	0	8.56027	18.6966	17.2807	#	C
676	1	3	0	3.99494	16.0462	17.1094	#	C
677	1	3	0	5.13219	15.6262	16.3919	#	C
678	1	3	0	6.4285	16.1863	16.6335	#	C
679	1	3	0	6.58004	17.1653	17.5877	#	C
680	1	3	0	5.45644	17.5743	18.3184	#	C
681	1	3	0	4.17837	17.1219	17.9673	#	C
682	1	3	0	24.8931	11.6626	17.237	#	C
683	1	3	0	19.7039	9.37959	17.9858	#	C
684	1	3	0	19.127	8.34779	17.2561	#	C
685	1	3	0	23.5732	10.9769	17.2313	#	C
686	1	3	0	22.4233	11.6419	16.8247	#	C
687	1	3	0	21.1372	11.0556	16.9947	#	C
688	1	3	0	21.0343	9.88273	17.642	#	C
689	1	3	0	22.1606	9.18451	18.1222	#	C
690	1	3	0	23.4345	9.74683	17.897	#	C
691	1	3	0	25.086	14.9872	9.43661	#	C
692	1	3	0	20.3911	18.174	8.70343	#	C
693	1	3	0	19.9321	19.2783	9.4604	#	C
694	1	3	0	24.0693	16.061	9.32095	#	C
695	1	3	0	23.2752	16.4575	10.447	#	C
696	1	3	0	22.1183	17.235	10.227	#	C
697	1	3	0	21.7745	17.665	8.97985	#	C
698	1	3	0	22.6311	17.4499	7.89169	#	C