Created for HOLQIK

        1484 atoms
        1704 bonds
        2884 angles
        3456 dihedrals
        2160 impropers

           9 atom types
          10 bond types
          16 angle types
           3 dihedral types
           1 improper types
           0.000000  49.90467586 xlo xhi
           0.000000  24.95233793 ylo yhi
           0.000000  24.95233793 zlo zhi
           0.000000   0.000000   0.000000 xy xz yz

Masses

    1    15.999400000 # O_2
    2    15.999400000 # O_R
    3    15.999400000 # O_3_f
    4    12.010700000 # C_R
    5     1.007940000 # H_
    6    14.006700000 # N_R
    7    65.380000000 # Zn3f2
    8    16.0 # O_ads
    9    0.001 # com

Bond Coeffs

    1      714.557442        1.269010  # O_2 C_R
    2      122.127512        2.014866  # O_2 Zn3f2
    3      646.680887        1.311940  # O_R C_R
    4      462.655054        1.379256  # C_R C_R
    5      357.440381        1.081418  # C_R H_
    6      391.669513        1.458000  # C_R C_R
    7      561.491352        1.422196  # C_R N_R
    8      663.718927        1.345073  # C_R N_R
    9      529.459447        1.043423  # H_ N_R
    10     1000.0	0.605  # O_ads com

Angle Coeffs

    1              cosine/periodic       84.412329              -1               3 # C_R O_2 Zn3f2
    2                      fourier       42.532620        0.343737        0.374972        0.281246 # Zn3f2 O_3_f Zn3f2
    3              cosine/periodic      222.595017              -1               3 # C_R C_R C_R
    4              cosine/periodic      114.578032              -1               3 # C_R C_R H_
    5              cosine/periodic      275.428492              -1               3 # O_2 C_R C_R
    6              cosine/periodic      413.556852              -1               3 # O_2 C_R O_2
    7              cosine/periodic      204.366560              -1               3 # C_R C_R C_R
    8              cosine/periodic      282.674883              -1               3 # C_R C_R N_R
    9              cosine/periodic      263.511421              -1               3 # O_R C_R C_R
   10              cosine/periodic      398.603153              -1               3 # O_R C_R N_R
   11              cosine/periodic      281.676258              -1               3 # C_R C_R N_R
   12              cosine/periodic      112.573865              -1               3 # H_ N_R C_R
   13              cosine/periodic      125.071223              -1               3 # H_ N_R C_R
   14              cosine/periodic      220.266188              -1               3 # C_R N_R C_R
   15                      fourier      131.511072        0.343737        0.374972        0.281246 # O_2 Zn3f2 O_2
   16              cosine/periodic      1000	1	1 # ads com ads

Dihedral Coeffs

    1        2.245703              -1               2 # Zn3f2 O_2 C_R O_2
    2        1.497136              -1               2 # C_R C_R C_R C_R
    3        0.555556              -1               2 # O_2 C_R C_R C_R

Improper Coeffs

    1        2.000000        1.000000       -1.000000        0.000000               0 # C_R C_R C_R H_

Atoms

1	1	1	-0.474945	4.19097	4.68673	2.33208	#	O
2	1	1	-0.52548	4.79381	5.83205	20.3594	#	O
3	1	1	-0.524682	4.98729	7.93364	20.9096	#	O
4	1	1	-0.510372	6.40216	5.22468	2.25384	#	O
5	1	2	-0.537089	3.94575	2.67552	22.4619	#	O
6	1	1	-0.474943	9.03273	20.0735	14.9523	#	O
7	1	1	-0.525482	8.03055	19.2937	7.89597	#	O
8	1	1	-0.524683	8.06971	17.1284	8.39676	#	O
9	1	1	-0.51037	6.83063	19.58	15.0429	#	O
10	1	2	-0.537088	7.56129	21.8134	9.207	#	O
11	1	1	-0.474944	21.3577	17.3055	10.8733	#	O
12	1	1	-0.525481	20.807	18.6507	17.7143	#	O
13	1	1	-0.524687	20.9855	20.7524	17.1609	#	O
14	1	1	-0.510375	19.3185	18.1558	10.8554	#	O
15	1	2	-0.537088	20.8069	15.381	16.0345	#	O
16	1	1	-0.474951	16.9312	8.09267	22.8659	#	O
17	1	1	-0.525484	17.0384	6.9383	4.83816	#	O
18	1	1	-0.524686	17.1556	4.81417	4.32929	#	O
19	1	1	-0.510374	19.0837	7.50641	22.9724	#	O
20	1	2	-0.537089	16.9254	10.0692	2.76621	#	O
21	1	1	-0.474941	2.48564	4.0775	5.16432	#	O
22	1	1	-0.525479	20.2511	4.76504	5.65679	#	O
23	1	1	-0.524679	20.8501	4.62533	7.75979	#	O
24	1	1	-0.510371	2.39702	6.27297	5.2854	#	O
25	1	2	-0.537087	22.0386	5.03779	2.35615	#	O
26	1	1	-0.474943	15.1771	8.64381	20.2518	#	O
27	1	1	-0.525482	8.06138	8.05574	19.7267	#	O
28	1	1	-0.524681	8.65249	7.91206	17.6607	#	O
29	1	1	-0.510369	15.172	6.45373	19.7477	#	O
30	1	2	-0.537087	9.81114	8.31621	22.7125	#	O
31	1	1	-0.474945	10.9586	21.3141	17.4709	#	O
32	1	1	-0.525481	17.9977	21.5055	18.696	#	O
33	1	1	-0.524685	17.4536	20.7047	20.7378	#	O
34	1	1	-0.510375	11.0625	19.2117	18.1992	#	O
35	1	2	-0.537088	16.574	20.7974	15.6365	#	O
36	1	1	-0.47495	23.1511	16.6331	8.19485	#	O
37	1	1	-0.525483	5.08627	17.026	6.95915	#	O
38	1	1	-0.524684	4.61861	16.9327	4.80536	#	O
39	1	1	-0.510378	23.203	18.7844	7.58365	#	O
40	1	2	-0.537088	3.23398	17.3114	9.86229	#	O
41	1	1	-0.474942	5.03172	2.12384	4.33805	#	O
42	1	1	-0.525479	5.67496	19.9856	4.86088	#	O
43	1	1	-0.52468	7.7527	20.6756	5.05216	#	O
44	1	1	-0.510374	5.0451	2.20696	6.52123	#	O
45	1	2	-0.537089	2.33357	22.2496	4.60533	#	O
46	1	1	-0.474947	20.29	14.8498	9.09356	#	O
47	1	1	-0.525482	19.6979	7.66102	8.23448	#	O
48	1	1	-0.52468	17.5153	8.2523	8.05084	#	O
49	1	1	-0.510372	19.7771	14.8165	6.9295	#	O
50	1	2	-0.537087	22.9287	9.75743	8.40348	#	O
51	1	1	-0.474945	17.6903	10.7464	20.8668	#	O
52	1	1	-0.525479	18.8337	17.6691	20.7195	#	O
53	1	1	-0.524684	20.9637	17.1918	20.5854	#	O
54	1	1	-0.510374	18.4963	10.6639	18.8364	#	O
55	1	2	-0.537087	15.6704	16.149	20.6348	#	O
56	1	1	-0.474953	8.34031	23.0131	16.5748	#	O
57	1	1	-0.525483	7.26338	4.93134	17.1704	#	O
58	1	1	-0.524685	5.18091	4.44601	17.4719	#	O
59	1	1	-0.510375	7.87513	23.113	18.7221	#	O
60	1	2	-0.537087	10.5571	2.21323	16.5925	#	O
61	1	1	-0.474944	21.5081	20.3068	23.1366	#	O
62	1	1	-0.525486	20.6675	19.4434	5.24904	#	O
63	1	1	-0.524686	20.7566	17.2444	4.85207	#	O
64	1	1	-0.510374	19.2864	19.8822	23.1441	#	O
65	1	2	-0.537088	21.4055	22.2752	3.38181	#	O
66	1	1	-0.474946	16.7835	4.99671	10.3798	#	O
67	1	1	-0.525484	17.5573	5.78068	17.5053	#	O
68	1	1	-0.524685	17.8075	7.91873	16.891	#	O
69	1	1	-0.510375	18.9643	5.34647	10.3557	#	O
70	1	2	-0.537089	17.3446	2.59543	15.3981	#	O
71	1	1	-0.474946	4.61312	7.68576	15.0234	#	O
72	1	1	-0.525485	4.66362	7.01636	7.75191	#	O
73	1	1	-0.524682	4.79944	4.88412	8.37202	#	O
74	1	1	-0.510371	6.76478	7.14837	14.9058	#	O
75	1	2	-0.537089	5.05793	9.97484	9.40481	#	O
76	1	1	-0.474939	8.81638	17.748	2.55618	#	O
77	1	1	-0.525482	8.80644	18.5683	20.5934	#	O
78	1	1	-0.524682	8.48332	20.7392	20.997	#	O
79	1	1	-0.510371	6.69075	18.1635	2.26697	#	O
80	1	2	-0.537088	8.93732	15.7314	22.8172	#	O
81	1	1	-0.474949	23.2803	21.2564	20.4873	#	O
82	1	1	-0.525487	5.48283	21.0289	19.5895	#	O
83	1	1	-0.524689	5.00864	20.6729	17.4951	#	O
84	1	1	-0.510375	23.2698	19.146	19.7423	#	O
85	1	2	-0.53709	2.91505	21.6127	22.6061	#	O
86	1	1	-0.474946	10.5407	16.6135	5.13545	#	O
87	1	1	-0.525484	17.577	17.3301	6.08479	#	O
88	1	1	-0.524687	17.0585	17.5413	8.21303	#	O
89	1	1	-0.510377	10.4348	18.7485	5.69702	#	O
90	1	2	-0.537089	15.3797	16.889	2.93034	#	O
91	1	1	-0.474945	14.8361	4.25094	7.78943	#	O
92	1	1	-0.525485	7.85419	4.27757	7.02414	#	O
93	1	1	-0.524683	8.274	4.65106	4.84276	#	O
94	1	1	-0.510371	14.8196	6.41728	7.23324	#	O
95	1	2	-0.537089	9.55549	4.93514	9.81134	#	O
96	1	1	-0.47494	2.92724	8.79839	17.6686	#	O
97	1	1	-0.525483	20.6022	8.18646	18.3138	#	O
98	1	1	-0.524683	21.144	8.10023	20.4615	#	O
99	1	1	-0.510367	2.67234	6.66576	18.0034	#	O
100	1	2	-0.537089	22.3082	8.13538	15.2069	#	O
101	1	1	-0.474947	20.8549	23.0872	21.4611	#	O
102	1	1	-0.525487	19.9959	5.193	20.5455	#	O
103	1	1	-0.524688	17.8302	4.58395	20.6254	#	O
104	1	1	-0.510372	20.6694	23.1078	19.2829	#	O
105	1	2	-0.537087	23.2754	3.27668	20.9496	#	O
106	1	1	-0.474942	5.54017	10.5192	16.7864	#	O
107	1	1	-0.525484	6.38723	17.634	17.767	#	O
108	1	1	-0.524688	8.57	17.1272	17.7327	#	O
109	1	1	-0.510374	6.08411	10.5275	18.9237	#	O
110	1	2	-0.537089	3.31242	15.9725	17.4466	#	O
111	1	1	-0.474945	7.75666	14.8184	4.10084	#	O
112	1	1	-0.525487	7.01043	7.7161	4.72675	#	O
113	1	1	-0.524685	4.85878	8.08055	4.58937	#	O
114	1	1	-0.510372	7.21801	14.6898	6.21659	#	O
115	1	2	-0.53709	10.182	9.89361	4.52651	#	O
116	1	1	-0.474937	17.4258	2.34278	8.47312	#	O
117	1	1	-0.525483	18.5902	20.3885	8.75793	#	O
118	1	1	-0.524683	20.7249	20.9116	8.24427	#	O
119	1	1	-0.510371	18.2263	2.18451	6.45946	#	O
120	1	2	-0.537089	15.3148	22.4445	8.70985	#	O
121	1	3	-0.994417	5.33512	5.09402	5.27832	#	O
122	1	3	-0.994414	8.05813	20.0989	17.9107	#	O
123	1	3	-0.994415	20.1445	17.7573	7.91262	#	O
124	1	3	-0.994416	18.1695	7.71504	20.0154	#	O
125	1	3	-0.994402	20.4439	20.2626	20.2519	#	O
126	1	3	-0.994405	17.7893	5.22492	7.34654	#	O
127	1	3	-0.994404	5.56258	7.53208	17.9238	#	O
128	1	3	-0.994403	7.49609	17.711	5.27737	#	O
129	1	4	-0.171608	4.01384	5.04732	24.5224	#	C
130	1	4	-0.129964	5.89138	6.65496	24.8208	#	C
131	1	4	0.61364	4.88413	6.73672	21.2525	#	C
132	1	4	-0.006064	5.00284	5.66095	0.323176	#	C
133	1	4	0.500433	5.21973	5.09592	1.674	#	C
134	1	4	-0.124178	4.89972	6.36439	22.6178	#	C
135	1	4	-0.089503	5.74863	7.06963	23.4834	#	C
136	1	4	0.266189	4.00101	5.35192	23.1524	#	C
137	1	4	-0.07356	1.48239	3.32461	20.0693	#	C
138	1	4	-0.034762	1.90898	2.81008	21.282	#	C
139	1	4	-0.034539	1.18929	1.71146	21.8336	#	C
140	1	4	-0.108787	0.46644	2.70799	19.3669	#	C
141	1	4	-0.156722	50.1007	1.11233	21.1757	#	C
142	1	4	-0.02684	49.8124	1.56524	19.8586	#	C
143	1	4	0.448402	2.95592	3.44989	22.0349	#	C
144	1	4	-0.171604	8.71464	20.1245	12.0728	#	C
145	1	4	-0.129967	7.4078	18.1736	12.5143	#	C
146	1	4	0.613642	8.05804	18.362	8.76922	#	C
147	1	4	-0.006061	7.94867	19.3898	12.9501	#	C
148	1	4	0.500435	7.94016	19.6793	14.3961	#	C
149	1	4	-0.124181	8.04476	18.6832	10.2573	#	C
150	1	4	-0.089501	7.36264	17.8574	11.1655	#	C
151	1	4	0.26619	8.80365	19.7951	10.7466	#	C
152	1	4	-0.07356	10.2614	22.7976	7.40437	#	C
153	1	4	-0.034764	9.78916	22.8064	8.75621	#	C
154	1	4	-0.034546	10.2751	23.7992	9.66676	#	C
155	1	4	-0.108784	11.3998	23.5501	7.1014	#	C
156	1	4	-0.156728	11.4023	24.5469	9.27771	#	C
157	1	4	-0.026843	11.9284	24.4075	8.00117	#	C
158	1	4	0.448398	8.91047	21.71	9.25756	#	C
159	1	4	-0.171604	21.194	17.6122	13.609	#	C
160	1	4	-0.129965	20.2925	19.7667	13.1341	#	C
161	1	4	0.61364	21.0028	19.5448	16.8214	#	C
162	1	4	-0.00606	20.6893	18.5294	12.707	#	C
163	1	4	0.500434	20.5104	18.1074	11.331	#	C
164	1	4	-0.12418	20.9437	19.1647	15.3902	#	C
165	1	4	-0.089498	20.2966	20.0695	14.4955	#	C
166	1	4	0.26619	21.3836	17.9273	14.939	#	C
167	1	4	-0.073559	23.7961	15.3016	17.7448	#	C
168	1	4	-0.034764	23.0811	14.9664	16.5874	#	C
169	1	4	-0.034546	23.3438	13.7161	15.967	#	C
170	1	4	-0.108782	24.8079	14.5067	18.2782	#	C
171	1	4	-0.156727	24.2459	12.8423	16.6232	#	C
172	1	4	-0.026848	25.0452	13.2831	17.6457	#	C
173	1	4	0.448399	22.0088	15.8615	16.1105	#	C
174	1	4	-0.171601	16.6369	7.73157	0.638949	#	C
175	1	4	-0.129965	18.4031	6.04534	0.461949	#	C
176	1	4	0.61364	17.0482	6.01957	3.96384	#	C
177	1	4	-0.006064	17.6629	7.11381	24.8943	#	C
178	1	4	0.500435	17.8718	7.54283	23.4588	#	C
179	1	4	-0.124176	17.214	6.40653	2.57559	#	C
180	1	4	-0.089507	18.1864	5.75222	1.85175	#	C
181	1	4	0.266192	16.4765	7.44206	2.00338	#	C
182	1	4	-0.07356	14.5024	9.4439	5.38272	#	C
183	1	4	-0.034761	15.0499	10.1942	4.30131	#	C
184	1	4	-0.034541	15.033	11.5827	4.35918	#	C
185	1	4	-0.108783	13.7469	10.1112	6.3319	#	C
186	1	4	-0.156725	14.2133	12.2741	5.26691	#	C
187	1	4	-0.026849	13.5726	11.5155	6.30423	#	C
188	1	4	0.448397	15.9219	9.47496	3.30696	#	C
189	1	4	-0.171608	24.4242	4.09467	4.71172	#	C
190	1	4	-0.129965	49.9315	5.89848	6.66734	#	C
191	1	4	0.613642	21.1469	4.68156	6.52663	#	C
192	1	4	-0.006065	0.436994	5.07842	5.67992	#	C
193	1	4	0.500433	1.83668	5.14527	5.3296	#	C
194	1	4	-0.12418	22.5475	4.75617	6.12775	#	C
195	1	4	-0.089501	23.4641	5.49224	6.90944	#	C
196	1	4	0.266189	23.0217	4.17124	4.90318	#	C
197	1	4	-0.073555	21.1043	2.63713	0.761337	#	C
198	1	4	-0.034763	22.1509	2.72371	1.68401	#	C
199	1	4	-0.034542	23.1123	1.71485	1.7224	#	C
200	1	4	-0.108787	21.05	1.54008	24.8817	#	C
201	1	4	-0.156723	23.004	0.612494	0.87628	#	C
202	1	4	-0.02684	21.9872	0.51402	24.9908	#	C
203	1	4	0.4484	22.055	3.74847	2.72117	#	C
204	1	4	-0.171605	12.2896	8.4874	20.5376	#	C
205	1	4	-0.12997	12.4665	6.69188	18.9611	#	C
206	1	4	0.613641	8.9587	8.04414	18.8564	#	C
207	1	4	-0.006062	13.0773	7.60724	19.7864	#	C
208	1	4	0.500433	14.5621	7.55382	19.9745	#	C
209	1	4	-0.124181	10.3382	7.83019	19.3185	#	C
210	1	4	-0.089501	11.0741	6.74992	18.7605	#	C
211	1	4	0.26619	10.9769	8.69247	20.1788	#	C
212	1	4	-0.073558	8.04096	11.4302	22.1112	#	C
213	1	4	-0.034763	8.82852	10.4778	22.8111	#	C
214	1	4	-0.034547	8.82993	10.5493	24.2333	#	C
215	1	4	-0.108785	7.30842	12.39	22.8111	#	C
216	1	4	-0.156728	7.98703	11.4558	24.9086	#	C
217	1	4	-0.026844	7.12614	12.3016	24.1637	#	C
218	1	4	0.448398	9.6703	9.45529	22.1473	#	C
219	1	4	-0.171602	13.8532	21.4202	17.6284	#	C
220	1	4	-0.129966	13.556	19.7286	19.3689	#	C
221	1	4	0.613639	17.1489	21.0641	19.5198	#	C
222	1	4	-0.006065	13.0395	20.4832	18.3044	#	C
223	1	4	0.500434	11.647	20.3336	17.9321	#	C
224	1	4	-0.124177	15.7359	20.8238	19.0575	#	C
225	1	4	-0.089502	14.9166	19.8988	19.7369	#	C
226	1	4	0.26619	15.1973	21.5649	17.978	#	C
227	1	4	-0.073558	18.6911	23.3995	15.6842	#	C
228	1	4	-0.034762	17.4077	23.0419	15.2327	#	C
229	1	4	-0.034545	16.9904	23.508	14.0244	#	C
230	1	4	-0.108782	19.5864	24.0498	14.8492	#	C
231	1	4	-0.156727	17.8442	24.286	13.2138	#	C
232	1	4	-0.02685	19.1702	24.4335	13.564	#	C
233	1	4	0.448398	16.5268	22.0942	15.9789	#	C
234	1	4	-0.171599	0.959294	16.6278	7.77512	#	C
235	1	4	-0.129964	25.8199	18.5361	6.48791	#	C
236	1	4	0.61364	4.22035	16.9368	6.0258	#	C
237	1	4	-0.006066	25.2109	17.461	7.20271	#	C
238	1	4	0.500436	23.8069	17.5962	7.66496	#	C
239	1	4	-0.124174	2.76769	16.9985	6.28849	#	C
240	1	4	-0.089506	1.94542	17.8542	5.51271	#	C
241	1	4	0.266189	2.22438	16.3856	7.43234	#	C
242	1	4	-0.073557	5.24189	14.4635	10.3039	#	C
243	1	4	-0.03476	3.94952	15.0095	10.4588	#	C
244	1	4	-0.034545	3.1002	14.5739	11.5586	#	C
245	1	4	-0.10878	5.71143	13.5083	11.2403	#	C
246	1	4	-0.156725	3.62562	13.5549	12.4208	#	C
247	1	4	-0.026855	4.86886	12.9828	12.1997	#	C
248	1	4	0.448395	3.39582	16.0259	9.50073	#	C
249	1	4	-0.171607	4.74116	24.3031	4.42455	#	C
250	1	4	-0.129965	6.14936	24.5036	6.40091	#	C
251	1	4	0.613641	6.49964	20.8959	5.06762	#	C
252	1	4	-0.006065	5.24513	25.1038	5.48531	#	C
253	1	4	0.500433	5.07383	1.53358	5.46164	#	C
254	1	4	-0.124178	5.94563	22.3504	5.26058	#	C
255	1	4	-0.089503	6.51467	23.1185	6.26454	#	C
256	1	4	0.266189	5.01916	22.9504	4.36952	#	C
257	1	4	-0.07356	2.81074	19.682	2.43065	#	C
258	1	4	-0.034763	2.34075	20.9771	2.53707	#	C
259	1	4	-0.034541	1.27311	21.4783	1.6536	#	C
260	1	4	-0.108787	2.204	18.8398	1.50567	#	C
261	1	4	-0.156721	0.629461	20.5563	0.879159	#	C
262	1	4	-0.026843	1.03959	19.2314	0.879722	#	C
263	1	4	0.448402	2.99849	21.8926	3.49228	#	C
264	1	4	-0.171603	20.5639	11.8964	8.63376	#	C
265	1	4	-0.129968	18.4064	12.2875	7.5742	#	C
266	1	4	0.613641	18.7414	8.57182	8.13787	#	C
267	1	4	-0.006061	19.5796	12.7876	8.14633	#	C
268	1	4	0.500434	19.8912	14.2401	8.05214	#	C
269	1	4	-0.124179	19.1544	10.0211	8.05734	#	C
270	1	4	-0.089502	18.1706	10.9272	7.55838	#	C
271	1	4	0.266188	20.3006	10.478	8.67857	#	C
272	1	4	-0.073562	22.5091	7.53544	11.2383	#	C
273	1	4	-0.034763	23.0433	8.63738	10.4991	#	C
274	1	4	-0.034547	24.3833	9.07339	10.7102	#	C
275	1	4	-0.108781	23.1278	7.12049	12.3563	#	C
276	1	4	-0.156726	25.0848	8.62453	11.8496	#	C
277	1	4	-0.026849	24.4508	7.57294	12.5824	#	C
278	1	4	0.448397	22.2756	9.26329	9.40655	#	C
279	1	4	-0.171607	17.7176	13.6434	20.6678	#	C
280	1	4	-0.129965	19.676	13.264	19.2955	#	C
281	1	4	0.61364	19.7325	16.8135	20.7035	#	C
282	1	4	-0.006061	18.5137	12.7939	19.9115	#	C
283	1	4	0.500433	18.1324	11.3345	19.837	#	C
284	1	4	-0.124179	19.3679	15.3907	20.4925	#	C
285	1	4	-0.089499	20.1225	14.6109	19.6209	#	C
286	1	4	0.266189	18.1407	14.8867	21.0176	#	C
287	1	4	-0.073559	15.5237	18.0654	23.1959	#	C
288	1	4	-0.034765	15.4613	16.6988	22.9641	#	C
289	1	4	-0.034543	14.6734	15.9303	23.7908	#	C
290	1	4	-0.108783	14.8238	18.6252	24.3018	#	C
291	1	4	-0.156724	13.9187	16.474	24.8325	#	C
292	1	4	-0.02685	13.9974	17.7852	25.0939	#	C
293	1	4	0.448399	16.217	16.083	21.833	#	C
294	1	4	-0.171603	8.10984	0.831699	16.455	#	C
295	1	4	-0.129967	6.45877	0.525186	18.2141	#	C
296	1	4	0.61364	6.34514	4.08792	17.1446	#	C
297	1	4	-0.006061	7.49468	25.0238	17.4276	#	C
298	1	4	0.500434	7.7844	23.5941	17.5512	#	C
299	1	4	-0.124177	6.72429	2.66402	17.1719	#	C
300	1	4	-0.089504	6.06085	1.85288	18.0528	#	C
301	1	4	0.26619	7.83293	2.1972	16.3914	#	C
302	1	4	-0.073561	10.766	5.19532	14.7755	#	C
303	1	4	-0.034761	10.8055	3.75103	14.7557	#	C
304	1	4	-0.034543	11.736	3.06909	14.0086	#	C
305	1	4	-0.108781	11.7581	5.89799	14.1302	#	C
306	1	4	-0.156723	12.687	3.81649	13.25	#	C
307	1	4	-0.026854	12.6087	5.21941	13.2424	#	C
308	1	4	0.448395	9.99918	3.02274	15.7294	#	C
309	1	4	-0.171602	21.4225	20.2286	1.06132	#	C
310	1	4	-0.129969	19.8107	18.4549	0.720111	#	C
311	1	4	0.613644	20.7818	18.4652	4.42316	#	C
312	1	4	-0.00606	20.508	19.5765	0.211253	#	C
313	1	4	0.500432	20.4378	19.9245	23.7674	#	C
314	1	4	-0.124181	20.8305	18.6966	2.9518	#	C
315	1	4	-0.089497	19.9248	18.1005	2.11693	#	C
316	1	4	0.266193	21.6701	19.699	2.39506	#	C
317	1	4	-0.073558	24.0444	22.5707	5.35555	#	C
318	1	4	-0.034766	23.7148	22.4951	4.00206	#	C
319	1	4	-0.034546	24.4766	23.1198	3.03095	#	C
320	1	4	-0.108782	25.0514	23.5018	5.7052	#	C
321	1	4	-0.156727	25.4412	24.067	3.35675	#	C
322	1	4	-0.026852	25.8106	24.179	4.70483	#	C
323	1	4	0.448398	22.5529	21.6869	3.57583	#	C
324	1	4	-0.171606	16.8793	5.08657	13.3119	#	C
325	1	4	-0.129966	18.8319	6.51928	12.9648	#	C
326	1	4	0.613641	17.7801	6.6364	16.6009	#	C
327	1	4	-0.006063	17.8046	5.69841	12.4498	#	C
328	1	4	0.500429	17.8512	5.31771	10.9995	#	C
329	1	4	-0.124178	17.9685	6.1703	15.2052	#	C
330	1	4	-0.0895	18.9247	6.70535	14.3466	#	C
331	1	4	0.266193	16.9681	5.29663	14.6812	#	C
332	1	4	-0.073558	14.7671	1.14478	15.8425	#	C
333	1	4	-0.034763	15.1793	2.39441	16.3734	#	C
334	1	4	-0.034539	14.7216	2.8099	17.6069	#	C
335	1	4	-0.108785	13.8483	0.390645	16.5313	#	C
336	1	4	-0.156721	13.7603	2.07898	18.2766	#	C
337	1	4	-0.026849	13.4529	0.795743	17.7717	#	C
338	1	4	0.448401	16.1991	3.1799	15.6697	#	C
339	1	4	-0.171606	4.5437	7.93839	12.1365	#	C
340	1	4	-0.129968	6.31259	6.20811	12.2379	#	C
341	1	4	0.613643	4.85154	6.13822	8.67787	#	C
342	1	4	-0.006064	5.56101	7.21208	12.8953	#	C
343	1	4	0.50043	5.68853	7.48085	14.3264	#	C
344	1	4	-0.124179	5.1224	6.5815	10.1217	#	C
345	1	4	-0.089502	6.05785	5.84144	10.9098	#	C
346	1	4	0.266193	4.40455	7.6749	10.7019	#	C
347	1	4	-0.073559	2.55556	11.6033	9.22949	#	C
348	1	4	-0.034764	2.79831	10.3825	8.65004	#	C
349	1	4	-0.03454	1.93811	9.91755	7.65023	#	C
350	1	4	-0.108786	1.34361	12.2052	9.02135	#	C
351	1	4	-0.156722	0.78031	10.5984	7.3258	#	C
352	1	4	-0.026844	0.459928	11.768	8.01925	#	C
353	1	4	0.448401	3.8076	9.49837	9.26397	#	C
354	1	4	-0.171609	9.25778	18.1037	24.8478	#	C
355	1	4	-0.129968	7.40208	19.6243	24.9132	#	C
356	1	4	0.613643	8.74895	19.5315	21.4006	#	C
357	1	4	-0.006059	8.18531	18.6367	0.493037	#	C
358	1	4	0.500429	7.86869	18.1396	1.81494	#	C
359	1	4	-0.124183	8.56719	19.2369	22.8374	#	C
360	1	4	-0.089493	7.61693	19.9169	23.5641	#	C
361	1	4	0.266191	9.43451	18.3653	23.5054	#	C
362	1	4	-0.073558	11.8376	15.8162	20.8048	#	C
363	1	4	-0.034767	11.1887	15.4197	21.9997	#	C
364	1	4	-0.034544	11.317	14.0787	22.4363	#	C
365	1	4	-0.108786	12.7535	14.9941	20.1755	#	C
366	1	4	-0.156725	12.3195	13.2493	21.8523	#	C
367	1	4	-0.026843	13.0336	13.7568	20.7508	#	C
368	1	4	0.448403	10.1069	16.2377	22.6771	#	C
369	1	4	-0.171602	1.23746	21.4657	20.2126	#	C
370	1	4	-0.129968	25.7995	19.814	18.2583	#	C
371	1	4	0.613641	4.61717	20.8299	18.6852	#	C
372	1	4	-0.006058	25.2904	20.3846	19.4725	#	C
373	1	4	0.500431	23.8526	20.2969	19.8518	#	C
374	1	4	-0.12418	3.21731	20.7113	18.9816	#	C
375	1	4	-0.089499	2.49648	19.6951	18.4274	#	C
376	1	4	0.266194	2.60242	21.5707	19.9034	#	C
377	1	4	-0.073563	4.07515	24.0695	23.7595	#	C
378	1	4	-0.034764	4.49505	23.483	22.5451	#	C
379	1	4	-0.034544	5.80073	23.7875	22.0469	#	C
380	1	4	-0.108782	4.94171	24.9542	24.5009	#	C
381	1	4	-0.156726	6.65615	24.5861	22.7949	#	C
382	1	4	-0.026852	6.26421	25.119	24.0688	#	C
383	1	4	0.448399	3.59878	22.4865	21.8712	#	C
384	1	4	-0.171605	13.3287	16.7426	5.23798	#	C
385	1	4	-0.129963	13.0181	18.4787	6.96324	#	C
386	1	4	0.613643	16.6921	17.4218	6.97109	#	C
387	1	4	-0.006061	12.5113	17.6241	5.97299	#	C
388	1	4	0.500431	11.0579	17.6033	5.73747	#	C
389	1	4	-0.124178	15.2429	17.5157	6.63736	#	C
390	1	4	-0.089499	14.3801	18.4603	7.29838	#	C
391	1	4	0.266193	14.7288	16.66	5.61518	#	C
392	1	4	-0.07356	18.0936	14.6156	3.50546	#	C
393	1	4	-0.034765	16.8222	14.8919	2.92123	#	C
394	1	4	-0.034539	16.5277	14.4172	1.64283	#	C
395	1	4	-0.108784	19.0047	13.8512	2.81781	#	C
396	1	4	-0.156721	17.4044	13.5597	0.980483	#	C
397	1	4	-0.026849	18.6666	13.2667	1.57535	#	C
398	1	4	0.448402	15.9031	15.855	3.60037	#	C
399	1	4	-0.171608	12.0164	4.42703	7.85782	#	C
400	1	4	-0.129967	12.2415	5.82514	5.93448	#	C
401	1	4	0.613644	8.68474	4.50821	6.03678	#	C
402	1	4	-0.006059	12.8036	5.17104	7.00784	#	C
403	1	4	0.50043	14.2552	5.26469	7.25167	#	C
404	1	4	-0.124182	10.1671	4.58513	6.31304	#	C
405	1	4	-0.089499	10.9618	5.37761	5.44851	#	C
406	1	4	0.266193	10.7536	4.02851	7.43371	#	C
407	1	4	-0.07356	7.45178	2.0513	9.92311	#	C
408	1	4	-0.034765	8.60796	2.72385	10.3658	#	C
409	1	4	-0.03454	9.20043	2.32839	11.5729	#	C
410	1	4	-0.108786	6.76745	1.16467	10.8088	#	C
411	1	4	-0.156723	8.40915	1.6677	12.5573	#	C
412	1	4	-0.026842	7.24729	1.03125	12.1195	#	C
413	1	4	0.448402	9.38454	3.68502	9.47451	#	C
414	1	4	-0.171611	24.7394	8.50448	17.2805	#	C
415	1	4	-0.129969	50.4053	7.71117	19.6396	#	C
416	1	4	0.613644	21.5169	8.15136	19.2272	#	C
417	1	4	-0.006057	0.79932	8.01142	18.366	#	C
418	1	4	0.500429	2.20368	7.81951	18.0389	#	C
419	1	4	-0.124185	22.9156	8.20523	18.9167	#	C
420	1	4	-0.089494	23.8484	7.5821	19.7691	#	C
421	1	4	0.266194	23.3936	8.6982	17.637	#	C
422	1	4	-0.073561	20.4818	11.1024	15.0001	#	C
423	1	4	-0.034768	21.6869	10.4406	14.7615	#	C
424	1	4	-0.034541	22.335	10.6142	13.5402	#	C
425	1	4	-0.108789	19.8718	11.8387	13.9744	#	C
426	1	4	-0.156724	21.8652	11.5457	12.6145	#	C
427	1	4	-0.026838	20.6007	12.1078	12.7833	#	C
428	1	4	0.448404	22.0461	9.30211	15.7233	#	C
429	1	4	-0.171603	20.9855	1.02749	21.2254	#	C
430	1	4	-0.129968	19.2377	0.631728	19.6143	#	C
431	1	4	0.613643	19.0994	4.27911	20.6618	#	C
432	1	4	-0.006059	20.3176	25.1679	20.4052	#	C
433	1	4	0.500431	20.6309	23.7181	20.4026	#	C
434	1	4	-0.124181	19.5044	2.86516	20.5923	#	C
435	1	4	-0.089498	18.8122	1.982	19.712	#	C
436	1	4	0.266194	20.649	2.37116	21.239	#	C
437	1	4	-0.073558	22.9253	5.9261	23.0526	#	C
438	1	4	-0.034765	23.2308	4.55911	22.8876	#	C
439	1	4	-0.034545	24.2604	3.97771	23.6748	#	C
440	1	4	-0.108782	23.5154	6.64875	24.0745	#	C
441	1	4	-0.156728	24.9894	4.83052	24.5053	#	C
442	1	4	-0.026849	24.5407	6.11344	24.8104	#	C
443	1	4	0.448398	22.5502	3.73268	21.9635	#	C
444	1	4	-0.171607	5.50657	13.4959	17.0906	#	C
445	1	4	-0.129965	7.44323	13.0247	18.4515	#	C
446	1	4	0.613642	7.35803	16.7504	17.7138	#	C
447	1	4	-0.006062	6.33427	12.5541	17.7341	#	C
448	1	4	0.50043	5.95548	11.1393	17.8361	#	C
449	1	4	-0.12418	7.00928	15.2858	17.6676	#	C
450	1	4	-0.089499	7.75329	14.4269	18.4745	#	C
451	1	4	0.266194	5.89939	14.8184	16.9694	#	C
452	1	4	-0.073556	3.45125	17.6312	14.2735	#	C
453	1	4	-0.034765	3.05447	16.5914	15.0963	#	C
454	1	4	-0.034538	1.75294	16.0354	14.9334	#	C
455	1	4	-0.108788	2.67405	18.0217	13.182	#	C
456	1	4	-0.156724	0.916699	16.5425	13.953	#	C
457	1	4	-0.026843	1.39208	17.4805	13.0311	#	C
458	1	4	0.448402	3.88298	16.0847	16.2569	#	C
459	1	4	-0.171603	7.70783	11.9147	4.05013	#	C
460	1	4	-0.129968	5.78007	12.2702	5.44704	#	C
461	1	4	0.613643	6.0236	8.53284	4.71296	#	C
462	1	4	-0.006063	6.86204	12.7724	4.8174	#	C
463	1	4	0.500432	7.24294	14.1852	5.07015	#	C
464	1	4	-0.12418	6.28749	10.0031	4.615	#	C
465	1	4	-0.089502	5.45217	10.8666	5.31057	#	C
466	1	4	0.266194	7.49354	10.4828	4.04322	#	C
467	1	4	-0.073559	10.422	7.56261	2.12948	#	C
468	1	4	-0.034762	10.5014	8.92163	2.37546	#	C
469	1	4	-0.034542	11.5947	9.65801	1.92291	#	C
470	1	4	-0.108786	11.4311	6.87517	1.43522	#	C
471	1	4	-0.156726	12.6966	8.94586	1.28453	#	C
472	1	4	-0.026843	12.5397	7.59652	0.987877	#	C
473	1	4	0.4484	9.6565	9.49055	3.39314	#	C
474	1	4	-0.171607	17.5445	24.4626	8.65144	#	C
475	1	4	-0.129966	19.5362	24.8251	7.31192	#	C
476	1	4	0.613644	19.5237	21.2755	8.47829	#	C
477	1	4	-0.006063	18.3088	0.280336	7.79869	#	C
478	1	4	0.50043	17.9373	1.6482	7.55903	#	C
479	1	4	-0.124182	19.1557	22.6913	8.37983	#	C
480	1	4	-0.089496	19.9521	23.5494	7.59883	#	C
481	1	4	0.266193	17.9728	23.1742	8.9114	#	C
482	1	4	-0.073557	15.9692	20.5349	11.7301	#	C
483	1	4	-0.034767	15.3207	21.5073	10.9823	#	C
484	1	4	-0.034542	14.0216	21.9129	11.354	#	C
485	1	4	-0.108788	15.4515	20.0463	12.878	#	C
486	1	4	-0.156726	13.538	21.534	12.5603	#	C
487	1	4	-0.026838	14.2595	20.583	13.3764	#	C
488	1	4	0.448404	15.9961	22.1539	9.83146	#	C
489	1	5	0.166776	3.33781	4.31072	24.9827	#	H
490	1	5	0.138382	6.71555	7.11256	0.406292	#	H
491	1	5	0.118905	6.40672	7.86955	23.0625	#	H
492	1	5	0.258219	2.1633	5.29582	21.9893	#	H
493	1	5	0.099718	2.00435	4.20775	19.629	#	H
494	1	5	0.154298	1.54389	1.2789	22.8403	#	H
495	1	5	0.172844	50.2439	3.10488	18.4507	#	H
496	1	5	0.116648	49.3763	0.511281	21.7906	#	H
497	1	5	0.166769	9.01697	21.1098	12.3805	#	H
498	1	5	0.138383	6.90944	17.5431	13.2378	#	H
499	1	5	0.118907	6.71865	17.0151	10.8524	#	H
500	1	5	0.258219	10.5259	20.4481	9.61735	#	H
501	1	5	0.099718	9.7094	22.2545	6.65983	#	H
502	1	5	0.154301	9.91776	23.7693	10.7209	#	H
503	1	5	0.172843	11.7711	23.5388	6.04046	#	H
504	1	5	0.116649	11.8653	25.1917	10.0151	#	H
505	1	5	0.166774	21.213	16.607	13.2969	#	H
506	1	5	0.138385	19.7398	20.4317	12.4908	#	H
507	1	5	0.118909	19.7427	20.8419	14.8643	#	H
508	1	5	0.258217	23.258	17.4529	15.841	#	H
509	1	5	0.099716	23.6827	16.2981	18.1259	#	H
510	1	5	0.154302	22.775	13.4024	15.1088	#	H
511	1	5	0.172841	25.4043	14.7781	19.1166	#	H
512	1	5	0.116648	24.4363	11.7827	16.2135	#	H
513	1	5	0.166775	16.0683	8.55337	0.219827	#	H
514	1	5	0.138382	19.1406	5.53032	24.9119	#	H
515	1	5	0.118903	18.8616	5.00762	2.2851	#	H
516	1	5	0.258218	14.731	7.81794	3.17337	#	H
517	1	5	0.099721	14.4665	8.32174	5.32194	#	H
518	1	5	0.154299	15.5051	12.1533	3.53384	#	H
519	1	5	0.172841	13.417	9.53089	7.17205	#	H
520	1	5	0.116648	14.1414	13.2953	5.2967	#	H
521	1	5	0.166776	49.9714	3.59627	4.20262	#	H
522	1	5	0.138382	0.621617	6.50015	7.30942	#	H
523	1	5	0.118905	23.0757	5.87488	7.82835	#	H
524	1	5	0.258219	21.9592	2.39658	4.29061	#	H
525	1	5	0.099718	20.1751	3.04585	1.0022	#	H
526	1	5	0.154299	23.8899	1.78785	2.51606	#	H
527	1	5	0.172846	20.2428	1.31304	24.274	#	H
528	1	5	0.116648	23.74	24.857	0.914887	#	H
529	1	5	0.16677	12.6944	9.18263	21.2181	#	H
530	1	5	0.138384	13.0031	6.14919	18.2541	#	H
531	1	5	0.118906	10.5904	6.10893	18.1355	#	H
532	1	5	0.258218	10.0461	10.6232	20.3969	#	H
533	1	5	0.099718	8.02404	11.4153	20.9896	#	H
534	1	5	0.1543	9.24252	9.75824	24.831	#	H
535	1	5	0.172844	6.84481	13.155	22.2324	#	H
536	1	5	0.116648	8.05406	11.4835	0.966476	#	H
537	1	5	0.166775	13.4565	21.9998	16.8247	#	H
538	1	5	0.138385	12.9833	18.9364	19.9228	#	H
539	1	5	0.118908	15.311	19.1929	20.4976	#	H
540	1	5	0.258217	16.3599	23.3491	17.6104	#	H
541	1	5	0.099718	19.0249	23.0658	16.6659	#	H
542	1	5	0.154301	15.9363	23.3459	13.7158	#	H
543	1	5	0.172841	20.5773	24.3266	15.1841	#	H
544	1	5	0.116648	17.529	24.506	12.1265	#	H
545	1	5	0.166775	25.5727	15.6758	8.28131	#	H
546	1	5	0.138384	25.2334	19.434	6.22438	#	H
547	1	5	0.118905	2.38822	18.4237	4.69933	#	H
548	1	5	0.258216	3.5014	14.7536	7.90731	#	H
549	1	5	0.099719	5.90863	14.6915	9.43204	#	H
550	1	5	0.154301	2.01866	14.8501	11.5322	#	H
551	1	5	0.172843	6.73684	13.2057	11.1055	#	H
552	1	5	0.116649	3.09677	13.2986	13.3347	#	H
553	1	5	0.166777	4.19662	24.7798	3.62778	#	H
554	1	5	0.138382	6.42807	25.0623	7.3314	#	H
555	1	5	0.118907	7.16723	22.628	7.03915	#	H
556	1	5	0.258219	4.76821	21.7972	2.51243	#	H
557	1	5	0.099719	3.68554	19.2789	2.97493	#	H
558	1	5	0.154298	1.07724	22.5091	1.48033	#	H
559	1	5	0.172844	2.56441	17.8573	1.31575	#	H
560	1	5	0.116647	26.0518	20.8359	24.2075	#	H
561	1	5	0.166769	21.5568	12.2011	8.75484	#	H
562	1	5	0.138383	17.5963	12.9462	7.17384	#	H
563	1	5	0.118906	17.3139	10.5054	7.11488	#	H
564	1	5	0.258217	20.5154	9.42758	10.5549	#	H
565	1	5	0.099719	21.4693	7.1678	11.0258	#	H
566	1	5	0.1543	24.711	9.95977	10.163	#	H
567	1	5	0.172844	22.6785	6.29097	12.9654	#	H
568	1	5	0.11665	0.607234	8.68126	12.6609	#	H
569	1	5	0.166775	16.8291	13.2026	21.1258	#	H
570	1	5	0.138385	20.3023	12.6506	18.6759	#	H
571	1	5	0.11891	20.8958	15.0519	19.0055	#	H
572	1	5	0.258218	17.8218	15.4456	23.056	#	H
573	1	5	0.099717	16.2525	18.6833	22.5996	#	H
574	1	5	0.154301	14.516	14.8949	23.4823	#	H
575	1	5	0.172841	14.7217	19.7185	24.3551	#	H
576	1	5	0.116648	13.1837	15.8796	0.37198	#	H
577	1	5	0.166774	8.77602	0.387334	15.7083	#	H
578	1	5	0.138383	5.86965	24.8994	18.8569	#	H
579	1	5	0.118903	5.18669	2.26295	18.4853	#	H
580	1	5	0.258217	8.13579	3.69446	14.9149	#	H
581	1	5	0.09972	9.96278	5.68385	15.2998	#	H
582	1	5	0.1543	11.6843	1.92563	13.9522	#	H
583	1	5	0.172842	11.8702	6.99242	14.2504	#	H
584	1	5	0.11665	13.3506	3.31892	12.5047	#	H
585	1	5	0.166772	21.835	21.1987	0.737631	#	H
586	1	5	0.138387	19.117	17.9116	25.0983	#	H
587	1	5	0.118907	19.3019	17.3086	2.48282	#	H
588	1	5	0.25822	23.3903	19.8076	3.657	#	H
589	1	5	0.099717	23.4829	22.0944	6.14743	#	H
590	1	5	0.154301	24.3417	22.8199	1.9973	#	H
591	1	5	0.172842	25.178	23.6602	6.79468	#	H
592	1	5	0.116651	26.1242	24.4255	2.60672	#	H
593	1	5	0.166779	16.2315	4.31496	12.9758	#	H
594	1	5	0.138385	19.5458	6.99177	12.3319	#	H
595	1	5	0.118905	19.822	7.16699	14.7374	#	H
596	1	5	0.25822	15.2917	5.04235	15.9882	#	H