Created for KUCDIW

        2220 atoms
        2504 bonds
        4612 angles
        6144 dihedrals
        2880 impropers

           8 atom types
           8 bond types
          14 angle types
           3 dihedral types
           1 improper types
           0.000000  52.03870042 xlo xhi
           0.000000  26.01935021 ylo yhi
           0.000000  26.01935021 zlo zhi
           0.000000   0.000000   0.000000 xy xz yz

Masses

    1    63.546000000 # Cu3f2
    2    10.811000000 # B_2
    3     1.007940000 # H_
    4    12.010700000 # C_R
    5    12.010700000 # C_3
    6    14.006700000 # N_R
    7    16.0 # O_ads
    8    0.001 # com

Bond Coeffs

    1      230.235866        1.860780  # Cu3f2 N_R
    2      423.470828        1.518433  # B_2 N_R
    3      357.440381        1.081418  # H_ C_R
    4      331.069389        1.109401  # H_ C_3
    5      663.718927        1.345073  # C_R N_R
    6      462.655054        1.379256  # C_R C_R
    7      369.943935        1.486000  # C_R C_3
    8      1000.0	0.605  # O_ads com

Angle Coeffs

    1                      fourier      204.265157        0.343737        0.374972        0.281246 # N_R Cu3f2 N_R
    2              cosine/periodic      295.339551              -1               3 # N_R B_2 N_R
    3              cosine/periodic      159.573934              -1               3 # N_R C_R H_
    4              cosine/periodic      424.885146              -1               3 # N_R C_R N_R
    5              cosine/periodic      198.274298              -1               3 # C_R C_R C_3
    6              cosine/periodic      307.398705              -1               3 # C_R C_R N_R
    7              cosine/periodic      273.097456              -1               3 # C_3 C_R N_R
    8              cosine/periodic      114.578032              -1               3 # H_ C_R C_R
    9                      fourier      121.777217        0.343737        0.374972        0.281246 # C_R C_3 H_
   10                      fourier       75.498766        0.343737        0.374972        0.281246 # H_ C_3 H_
   11              cosine/periodic      240.001032              -1               3 # C_R N_R C_R
   12              cosine/periodic      181.788378              -1               3 # C_R N_R B_2
   13              cosine/periodic      125.934471              -1               3 # C_R N_R Cu3f2
   14              cosine/periodic      1000	1	1 # ads com ads

Dihedral Coeffs

    1        0.416667              -1               2 # N_R B_2 N_R C_R
    2        1.497136              -1               2 # H_ C_R N_R C_R
    3        0.083333               1               3 # C_R C_R C_3 H_

Improper Coeffs

    1        2.000000        1.000000       -1.000000        0.000000               0 # N_R C_R H_ N_R

Atoms

1	1	1	0.232046	20.4043	16.3743	23.7183	#	Cu
2	1	1	0.232047	7.04298	10.6059	24.074	#	Cu
3	1	1	0.232046	7.27944	16.1988	3.05157	#	Cu
4	1	1	0.232047	20.5106	10.7044	2.92108	#	Cu
5	1	1	0.232046	24.1156	19.8788	16.0527	#	Cu
6	1	1	0.232047	24.4472	6.87635	10.5734	#	Cu
7	1	1	0.232046	3.29236	6.85254	16.2175	#	Cu
8	1	1	0.232047	3.20914	19.9499	10.6901	#	Cu
9	1	1	0.232046	16.6123	24.0537	20.153	#	Cu
10	1	1	0.232047	11.0561	24.0198	6.78973	#	Cu
11	1	1	0.232046	16.5192	3.14357	6.95259	#	Cu
12	1	1	0.232047	10.9113	3.00764	19.9385	#	Cu
13	1	1	0.232047	16.6981	20.1059	3.11063	#	Cu
14	1	1	0.232047	10.997	6.93814	3.06989	#	Cu
15	1	1	0.232046	16.4738	7.11778	24.0081	#	Cu
16	1	1	0.232047	10.9808	19.9988	23.9229	#	Cu
17	1	1	0.232047	20.4011	23.8548	10.7331	#	Cu
18	1	1	0.232046	7.39334	23.7415	16.122	#	Cu
19	1	1	0.232047	7.18408	2.66351	10.5992	#	Cu
20	1	1	0.232047	20.2273	2.99505	16.28	#	Cu
21	1	1	0.232046	24.2734	16.1594	6.52099	#	Cu
22	1	1	0.232047	24.0682	10.6657	19.797	#	Cu
23	1	1	0.232047	3.3376	16.0277	19.9964	#	Cu
24	1	1	0.232047	3.45797	10.7255	7.03794	#	Cu
25	1	2	0.513631	24.0336	16.0541	19.8958	#	B
26	1	2	0.513631	3.49983	10.633	20.0272	#	B
27	1	2	0.513631	3.61167	16.1584	6.84165	#	B
28	1	2	0.513631	24.2113	10.7129	6.53582	#	B
29	1	2	0.513631	20.2239	23.6452	16.1273	#	B
30	1	2	0.513631	20.3403	3.23508	10.8518	#	B
31	1	2	0.513631	7.07656	2.9988	16.1015	#	B
32	1	2	0.513631	7.31147	23.3192	10.6633	#	B
33	1	2	0.513631	16.5053	20.1379	23.7482	#	B
34	1	2	0.513631	11.1742	20.049	3.25774	#	B
35	1	2	0.513631	16.4731	7.15879	3.32786	#	B
36	1	2	0.513631	10.9689	6.82847	23.7189	#	B
37	1	2	0.513631	16.5571	23.7658	6.93786	#	B
38	1	2	0.513631	11.1092	3.25251	6.77122	#	B
39	1	2	0.513631	16.4229	3.42474	20.2424	#	B
40	1	2	0.513631	11.0543	23.631	20.0585	#	B
41	1	2	0.513631	24.0626	19.9737	10.5078	#	B
42	1	2	0.513631	3.64618	19.886	16.1476	#	B
43	1	2	0.513631	3.61756	6.62217	10.7641	#	B
44	1	2	0.513631	24.2269	6.69389	16.085	#	B
45	1	2	0.513631	20.4122	16.1465	3.03809	#	B
46	1	2	0.513631	20.3886	10.8288	23.6248	#	B
47	1	2	0.513631	7.19569	16.106	23.6536	#	B
48	1	2	0.513631	7.1307	10.7314	3.33307	#	B
49	1	3	0.083051	21.5315	15.357	21.1449	#	H
50	1	3	0.132846	24.249	18.4907	21.4046	#	H
51	1	3	0.158437	23.3781	18.662	24.1817	#	H
52	1	3	0.159125	22.4578	20.0877	23.4237	#	H
53	1	3	0.16407	21.5849	18.8124	24.4514	#	H
54	1	3	0.082781	25.2418	13.5702	20.3055	#	H
55	1	3	0.130606	21.7701	14.9265	18.5963	#	H
56	1	3	0.159055	20.9493	12.5846	17.3896	#	H
57	1	3	0.165903	22.3518	11.5619	16.9392	#	H
58	1	3	0.16152	21.3601	11.3647	18.5388	#	H
59	1	3	0.079215	23.5945	18.7808	18.8401	#	H
60	1	3	0.12718	24.727	15.0496	17.2058	#	H
61	1	3	0.157667	25.9352	17.8748	14.8757	#	H
62	1	3	0.164541	26.1589	16.1433	15.0787	#	H
63	1	3	0.15519	24.6545	16.8079	14.245	#	H
64	1	3	0.082155	26.6436	16.7206	19.0075	#	H
65	1	3	0.125446	25.1381	15.1731	22.557	#	H
66	1	3	0.166628	3.04544	14.9093	22.7986	#	H
67	1	3	0.156959	2.387	16.3023	23.6192	#	H
68	1	3	0.156209	1.58935	14.6745	23.8604	#	H
69	1	3	0.083051	5.72609	11.5797	21.4589	#	H
70	1	3	0.132846	3.41793	8.19489	21.5813	#	H
71	1	3	0.158437	4.84191	8.24191	24.8706	#	H
72	1	3	0.159125	4.13809	7.09452	23.7898	#	H
73	1	3	0.16407	5.91871	7.04036	23.8733	#	H
74	1	3	0.082781	2.29411	13.2154	20.8437	#	H
75	1	3	0.130606	5.68527	11.8318	18.7447	#	H
76	1	3	0.159055	6.29444	14.4403	17.5789	#	H
77	1	3	0.165903	5.57364	15.7006	18.4863	#	H
78	1	3	0.16152	6.84935	14.7823	19.3023	#	H
79	1	3	0.079215	3.44063	7.99022	19.0893	#	H
80	1	3	0.12718	2.74044	11.685	17.3573	#	H
81	1	3	0.157667	2.10347	10.9682	14.9662	#	H
82	1	3	0.164541	2.68286	9.39849	14.3274	#	H
83	1	3	0.15519	1.10728	9.48036	15.4394	#	H
84	1	3	0.082155	0.808982	9.63545	19.0003	#	H
85	1	3	0.125446	2.34064	11.4686	22.6131	#	H
86	1	3	0.166628	25.5347	10.8618	23.7521	#	H
87	1	3	0.156959	25.8709	12.4102	22.9692	#	H
88	1	3	0.156209	24.4087	11.4805	22.3806	#	H
89	1	3	0.083051	6.20016	15.6458	5.68333	#	H
90	1	3	0.132846	3.20007	18.5184	5.02162	#	H
91	1	3	0.158437	5.43422	20.1186	3.78859	#	H
92	1	3	0.159125	5.9695	19.0625	2.33285	#	H
93	1	3	0.16407	4.23956	19.5402	2.67229	#	H
94	1	3	0.082781	2.37456	13.5841	6.45905	#	H
95	1	3	0.130606	5.82177	15.0544	8.22961	#	H
96	1	3	0.159055	6.94244	12.3852	8.8827	#	H
97	1	3	0.165903	5.60444	12.6188	9.9898	#	H
98	1	3	0.16152	5.59331	11.1398	8.92538	#	H
99	1	3	0.079215	3.92361	18.8708	7.81565	#	H
100	1	3	0.12718	3.32043	15.1038	9.62671	#	H
101	1	3	0.157667	1.22299	17.5112	11.6195	#	H
102	1	3	0.164541	1.855	15.9677	11.8334	#	H
103	1	3	0.15519	2.7596	17.2931	12.5214	#	H
104	1	3	0.082155	0.949758	16.693	8.05319	#	H
105	1	3	0.125446	2.37398	15.4138	4.23044	#	H
106	1	3	0.166628	24.5829	15.0014	3.69488	#	H
107	1	3	0.156959	25.7497	15.7524	2.61701	#	H
108	1	3	0.156209	26.0004	14.0861	3.08781	#	H
109	1	3	0.083051	21.4911	10.9128	5.78652	#	H
110	1	3	0.132846	24.7891	8.61443	4.46829	#	H
111	1	3	0.158437	21.7709	7.8362	2.01826	#	H
112	1	3	0.159125	23.3885	8.68592	1.58295	#	H
113	1	3	0.16407	23.3178	7.18563	2.51996	#	H
114	1	3	0.082781	25.2668	13.2982	5.96408	#	H
115	1	3	0.130607	22.2473	11.8896	8.13852	#	H
116	1	3	0.159055	22.514	14.4005	9.59534	#	H
117	1	3	0.165903	21.9129	15.7265	8.48615	#	H
118	1	3	0.16152	20.8958	14.3785	8.75232	#	H
119	1	3	0.079215	24.1644	7.89067	7.52302	#	H
120	1	3	0.12718	25.0785	11.4796	9.00534	#	H
121	1	3	0.157667	25.36	9.09698	12.0194	#	H
122	1	3	0.164541	26.1499	10.5233	11.3418	#	H
123	1	3	0.15519	24.5316	10.7089	11.9304	#	H
124	1	3	0.082155	26.871	10.1056	7.9217	#	H
125	1	3	0.125446	25.7058	11.7509	4.26331	#	H
126	1	3	0.166628	1.56871	11.9748	3.3294	#	H
127	1	3	0.156959	3.02047	12.0503	4.32524	#	H
128	1	3	0.156209	2.36103	10.4704	3.71235	#	H
129	1	3	0.083051	21.9292	21.5329	15.0684	#	H
130	1	3	0.132846	21.7313	23.4641	18.8137	#	H
131	1	3	0.158437	24.429	20.6784	19.0931	#	H
132	1	3	0.159125	24.8933	22.1972	18.325	#	H
133	1	3	0.16407	23.9378	22.2771	19.7934	#	H
134	1	3	0.082781	20.633	25.0164	13.6013	#	H
135	1	3	0.130606	19.1132	21.3132	14.7874	#	H
136	1	3	0.159055	19.2222	21.413	10.8733	#	H
137	1	3	0.165903	19.306	20.1218	12.1426	#	H
138	1	3	0.16152	17.8983	21.112	11.9838	#	H
139	1	3	0.079215	19.5662	23.9067	18.8441	#	H
140	1	3	0.12718	17.7026	24.1873	15.2229	#	H
141	1	3	0.157667	15.9798	26.2048	17.3486	#	H
142	1	3	0.164541	15.4552	24.9847	15.9987	#	H
143	1	3	0.15519	14.87	24.9072	17.6699	#	H
144	1	3	0.082155	19.0094	26.2408	16.2963	#	H
145	1	3	0.125446	22.8311	24.6981	15.7447	#	H
146	1	3	0.166628	23.3802	1.25364	14.3324	#	H
147	1	3	0.156959	23.0152	2.65066	15.3226	#	H
148	1	3	0.156209	24.2195	1.6075	15.9795	#	H
149	1	3	0.083051	22.1439	5.28318	11.9033	#	H
150	1	3	0.132846	21.7652	3.17641	8.40682	#	H
151	1	3	0.158437	23.0706	5.82792	6.99719	#	H
152	1	3	0.159125	24.6968	5.77886	8.01394	#	H
153	1	3	0.16407	24.0132	4.25108	7.14779	#	H
154	1	3	0.082781	20.8028	1.96829	13.4256	#	H
155	1	3	0.130606	18.8526	5.39009	12.0444	#	H
156	1	3	0.159055	17.8328	6.02442	14.8751	#	H
157	1	3	0.165903	18.9333	5.45961	16.0156	#	H
158	1	3	0.16152	19.6014	6.60704	14.7838	#	H
159	1	3	0.079215	19.5094	3.44559	8.09071	#	H
160	1	3	0.12718	17.6864	2.73532	11.8045	#	H
161	1	3	0.157667	15.1945	1.66992	8.97418	#	H
162	1	3	0.164541	15.6088	1.55694	10.774	#	H
163	1	3	0.15519	14.7639	3.04361	10.1523	#	H
164	1	3	0.082155	19.2731	0.595924	10.0134	#	H
165	1	3	0.125446	22.7571	1.99144	11.8968	#	H
166	1	3	0.166628	24.2282	25.5144	11.454	#	H
167	1	3	0.156959	23.0776	25.1598	12.8231	#	H
168	1	3	0.156209	23.1656	24.086	11.4097	#	H
169	1	3	0.083051	5.6296	5.27311	15.1681	#	H
170	1	3	0.132846	5.46524	2.9251	18.5839	#	H
171	1	3	0.158437	3.35912	4.13576	19.7522	#	H
172	1	3	0.159125	2.61476	5.49074	19.0592	#	H
173	1	3	0.16407	2.69714	3.77073	18.197	#	H
174	1	3	0.082781	6.50289	1.69531	13.4378	#	H
175	1	3	0.130606	8.31489	5.1529	14.7905	#	H
176	1	3	0.159055	7.99973	6.24928	12.2187	#	H
177	1	3	0.165903	9.66413	5.62122	12.2126	#	H
178	1	3	0.16152	8.42941	5.25285	10.8895	#	H
179	1	3	0.079215	8.12685	3.75609	18.7724	#	H
180	1	3	0.12718	9.69861	2.20069	15.1711	#	H
181	1	3	0.157667	12.6354	2.55337	16.7537	#	H
182	1	3	0.164541	12.2106	1.38578	17.982	#	H
183	1	3	0.15519	11.7893	1.104	16.2172	#	H
184	1	3	0.082155	8.27551	0.4734	16.9775	#	H
185	1	3	0.125446	4.60364	1.77314	15.2703	#	H
186	1	3	0.166628	4.94123	23.9327	14.701	#	H
187	1	3	0.156959	3.53657	24.9985	15.1513	#	H
188	1	3	0.156209	4.52493	25.3283	13.6901	#	H
189	1	3	0.083051	5.82147	21.1591	11.7434	#	H
190	1	3	0.132846	5.70236	23.5256	8.39347	#	H
191	1	3	0.158437	2.62448	22.9525	8.80211	#	H
192	1	3	0.159125	3.51907	22.6181	7.25031	#	H
193	1	3	0.16407	2.55028	21.4396	7.97522	#	H
194	1	3	0.082781	6.85666	24.7293	13.154	#	H
195	1	3	0.130607	8.43334	20.9721	12.0204	#	H
196	1	3	0.159055	8.88381	21.5027	15.9755	#	H
197	1	3	0.165903	7.9438	20.3052	14.9688	#	H
198	1	3	0.16152	9.75193	20.501	14.6673	#	H
199	1	3	0.079215	7.99795	23.3484	7.92579	#	H
200	1	3	0.12718	9.72631	24.1153	11.5898	#	H
201	1	3	0.157667	12.7764	24.0845	10.0139	#	H
202	1	3	0.164541	12.3419	25.4478	8.96105	#	H
203	1	3	0.15519	12.0026	25.57	10.6489	#	H
204	1	3	0.082155	8.32786	25.9743	9.88008	#	H
205	1	3	0.125446	4.82456	24.3359	11.5545	#	H
206	1	3	0.166628	4.08912	1.14636	12.5416	#	H
207	1	3	0.156959	4.40748	2.35586	11.1569	#	H
208	1	3	0.156209	3.27254	0.932718	10.9245	#	H
209	1	3	0.083051	16.0654	20.9702	20.9741	#	H
210	1	3	0.132846	18.5536	22.1179	24.1013	#	H
211	1	3	0.158437	19.6321	24.4582	23.0883	#	H
212	1	3	0.159125	20.3772	23.6308	21.5768	#	H
213	1	3	0.16407	19.0893	24.7485	21.3003	#	H
214	1	3	0.082781	13.8886	20.7218	25.0214	#	H
215	1	3	0.130606	15.1544	19.0694	21.3169	#	H
216	1	3	0.159055	12.8415	17.944	20.6255	#	H
217	1	3	0.165903	12.3495	17.2237	22.1924	#	H
218	1	3	0.16152	11.3881	18.5115	21.4516	#	H
219	1	3	0.079215	19.2251	19.2049	23.6439	#	H
220	1	3	0.12718	15.637	17.5317	24.596	#	H
221	1	3	0.157667	18.205	15.1903	25.7127	#	H
222	1	3	0.164541	16.4541	15.1721	25.3425	#	H
223	1	3	0.15519	17.6645	14.433	24.3154	#	H
224	1	3	0.082155	17.3486	19.1949	26.3832	#	H
225	1	3	0.125446	15.6263	22.7215	24.979	#	H
226	1	3	0.166628	14.508	23.3063	1.58189	#	H
227	1	3	0.156959	15.586	22.791	2.96707	#	H
228	1	3	0.156209	16.1593	24.0798	1.91096	#	H
229	1	3	0.083051	11.9812	21.2648	5.66287	#	H
230	1	3	0.132846	8.85377	21.7018	2.98543	#	H
231	1	3	0.158437	8.38807	24.4888	5.62666	#	H
232	1	3	0.159125	9.27457	24.8112	4.08257	#	H
233	1	3	0.16407	7.74363	23.9151	3.98277	#	H
234	1	3	0.082781	13.792	20.6662	2.00344	#	H
235	1	3	0.130606	12.5511	18.4703	5.42785	#	H
236	1	3	0.159055	15.0618	18.3348	6.72921	#	H
237	1	3	0.165903	15.5256	17.2391	5.23845	#	H
238	1	3	0.16152	16.3635	18.779	5.60948	#	H
239	1	3	0.079215	8.46042	18.9436	3.78548	#	H
240	1	3	0.12718	12.1326	17.4134	2.54202	#	H
241	1	3	0.157667	9.21265	15.0028	1.55783	#	H
242	1	3	0.164541	10.8466	15.2541	1.08326	#	H
243	1	3	0.15519	10.4966	14.4298	2.60295	#	H
244	1	3	0.082155	10.3824	18.9694	0.671734	#	H
245	1	3	0.125446	11.9955	22.5436	2.07835	#	H
246	1	3	0.166628	11.9486	22.4095	24.1496	#	H
247	1	3	0.156959	11.4656	23.8875	25.2345	#	H
248	1	3	0.156209	12.9572	23.0743	25.6184	#	H
249	1	3	0.083051	15.3361	5.58073	5.37926	#	H
250	1	3	0.132846	18.9477	5.70222	3.3437	#	H
251	1	3	0.158437	18.8388	2.65099	4.09339	#	H
252	1	3	0.159125	20.2586	3.49123	4.83061	#	H
253	1	3	0.16407	19.1475	2.50256	5.73959	#	H
254	1	3	0.082781	13.923	6.60919	1.92739	#	H
255	1	3	0.130606	15.0173	8.63921	5.47759	#	H
256	1	3	0.159055	11.1129	8.60276	5.25236	#	H
257	1	3	0.165903	12.1811	8.22883	6.65906	#	H
258	1	3	0.16152	12.3523	9.67517	5.56366	#	H
259	1	3	0.079215	19.2397	8.00033	3.76951	#	H
260	1	3	0.12718	15.6563	9.71069	2.42929	#	H
261	1	3	0.157667	16.5168	11.9883	1.64804	#	H
262	1	3	0.164541	17.7356	12.6902	2.82927	#	H
263	1	3	0.15519	18.3427	12.1623	1.18558	#	H
264	1	3	0.082155	17.1815	8.20608	0.725364	#	H
265	1	3	0.125446	15.7091	4.63168	2.22546	#	H
266	1	3	0.166628	16.0773	3.17102	25.7557	#	H
267	1	3	0.156959	14.5141	4.22741	25.6555	#	H
268	1	3	0.156209	15.7617	4.27247	24.305	#	H
269	1	3	0.083051	11.7853	5.63755	21.1426	#	H
270	1	3	0.132846	8.63953	5.00974	23.871	#	H
271	1	3	0.158437	7.30484	3.22342	22.3954	#	H
272	1	3	0.159125	8.16289	2.57525	20.8739	#	H
273	1	3	0.16407	8.73529	2.04656	22.5063	#	H
274	1	3	0.082781	13.4492	6.69737	25.2702	#	H
275	1	3	0.130607	12.3042	8.0461	21.5027	#	H
276	1	3	0.159055	16.1078	8.30677	21.5969	#	H
277	1	3	0.165903	14.8886	8.13008	20.3059	#	H
278	1	3	0.16152	14.7308	9.58417	21.2442	#	H
279	1	3	0.079215	8.21034	7.85317	23.1685	#	H
280	1	3	0.12718	11.8601	9.38063	24.5788	#	H
281	1	3	0.157667	9.42064	11.5809	25.9495	#	H
282	1	3	0.164541	11.1423	11.5765	25.3964	#	H
283	1	3	0.15519	9.87008	12.4119	24.4541	#	H
284	1	3	0.082155	10.1757	7.92673	26.2552	#	H
285	1	3	0.125446	12.0038	4.45939	24.9474	#	H
286	1	3	0.166628	12.1421	3.1365	1.28533	#	H
287	1	3	0.156959	13.3351	4.34464	1.62354	#	H
288	1	3	0.156209	11.9885	4.14503	2.80951	#	H
289	1	3	0.083051	15.6288	21.4585	5.45388	#	H
290	1	3	0.132846	18.9135	23.8328	5.46774	#	H
291	1	3	0.158437	18.8059	22.7705	2.40584	#	H
292	1	3	0.159125	20.3348	22.3567	3.12107	#	H
293	1	3	0.164069	19.3126	21.1754	2.54952	#	H
294	1	3	0.082781	14.0243	25.1682	6.22625	#	H
295	1	3	0.130607	15.2377	21.6577	8.21633	#	H
296	1	3	0.159055	11.3463	21.7509	8.62879	#	H
297	1	3	0.165903	12.32	20.3933	7.81214	#	H
298	1	3	0.16152	12.7226	21.2764	9.47234	#	H
299	1	3	0.079215	19.3246	23.3297	7.94204	#	H
300	1	3	0.12718	15.6129	24.4268	9.48692	#	H
301	1	3	0.157667	17.2136	23.5864	12.2184	#	H
302	1	3	0.164541	18.2453	25.094	12.2405	#	H
303	1	3	0.15519	16.4473	25.2123	11.9801	#	H
304	1	3	0.082155	16.8018	26.3422	8.18629	#	H
305	1	3	0.125446	15.797	24.9988	4.44925	#	H
306	1	3	0.166628	14.7812	1.75784	4.07817	#	H
307	1	3	0.156959	16.1785	2.79313	4.08407	#	H
308	1	3	0.156209	16.0982	1.3178	3.03711	#	H
309	1	3	0.083051	11.2512	6.15073	5.98216	#	H
310	1	3	0.132846	8.84896	2.90152	4.96942	#	H
311	1	3	0.158437	7.40033	4.40592	3.06403	#	H
312	1	3	0.159125	8.29983	5.7673	2.21433	#	H
313	1	3	0.164069	8.96357	4.07887	2.03355	#	H
314	1	3	0.082781	13.7328	2.07118	6.21251	#	H
315	1	3	0.130606	12.263	5.70884	7.96745	#	H
316	1	3	0.159055	16.1426	5.57345	8.54816	#	H
317	1	3	0.165903	15.1616	6.42838	7.28277	#	H
318	1	3	0.16152	14.7284	6.4376	9.20205	#	H
319	1	3	0.079215	8.27831	3.21799	7.68064	#	H
320	1	3	0.12718	12.0843	2.68248	9.36903	#	H
321	1	3	0.157667	11.3867	1.67688	11.5569	#	H
322	1	3	0.164541	10.1394	2.58089	12.43	#	H
323	1	3	0.15519	9.71412	1.06535	11.7144	#	H
324	1	3	0.082155	10.3227	0.647458	7.78304	#	H
325	1	3	0.125446	12.1483	2.05423	4.31916	#	H
326	1	3	0.166628	12.5958	24.5067	4.34653	#	H
327	1	3	0.156959	11.3023	24.7771	3.15862	#	H
328	1	3	0.156209	12.7913	25.804	3.25919	#	H
329	1	3	0.083051	15.4382	5.62403	21.7261	#	H
330	1	3	0.132846	18.8782	3.40064	21.7774	#	H
331	1	3	0.158437	18.8983	5.5591	24.7544	#	H
332	1	3	0.159125	19.9187	4.35569	23.9001	#	H
333	1	3	0.164069	20.2806	6.10803	23.7257	#	H
334	1	3	0.082781	13.8196	1.97081	20.6687	#	H
335	1	3	0.130606	15.0735	5.6507	19.243	#	H
336	1	3	0.159055	12.5485	6.70856	18.9332	#	H
337	1	3	0.165903	12.8868	5.9798	17.4413	#	H
338	1	3	0.16152	11.3673	5.40406	18.3627	#	H
339	1	3	0.079215	19.3197	3.27397	19.2615	#	H
340	1	3	0.12718	15.4217	3.05323	17.7131	#	H
341	1	3	0.157667	16.2919	1.41451	15.589	#	H
342	1	3	0.164541	16.7682	3.01526	14.8063	#	H
343	1	3	0.15519	17.9483	1.732	15.0635	#	H
344	1	3	0.082155	17.2264	0.861436	19.1056	#	H
345	1	3	0.125446	15.5166	2.12969	22.7129	#	H
346	1	3	0.166628	14.8145	25.8235	23.7098	#	H
347	1	3	0.156959	14.8966	24.4044	22.6263	#	H
348	1	3	0.156209	16.3249	24.7455	23.6067	#	H
349	1	3	0.083051	11.7224	21.0567	21.1962	#	H
350	1	3	0.132846	8.85938	23.914	21.7968	#	H
351	1	3	0.158437	8.30371	21.4224	24.6739	#	H
352	1	3	0.159125	9.15595	23.0207	24.674	#	H
353	1	3	0.164069	7.58191	22.855	23.8776	#	H
354	1	3	0.082781	13.5667	25.1021	20.3392	#	H
355	1	3	0.130606	12.5724	21.8199	18.4547	#	H
356	1	3	0.159055	15.0764	20.4896	18.5371	#	H
357	1	3	0.165903	15.2556	21.9201	17.2647	#	H
358	1	3	0.16152	16.3421	21.7084	18.7104	#	H
359	1	3	0.079215	8.48828	23.0118	18.9644	#	H
360	1	3	0.12718	12.0547	24.2204	17.3547	#	H
361	1	3	0.157667	11.2967	25.1816	15.0783	#	H
362	1	3	0.164541	10.5634	23.6535	14.7795	#	H
363	1	3	0.15519	9.47908	25.1164	14.7365	#	H
364	1	3	0.082155	9.70695	26.2121	19.2829	#	H
365	1	3	0.125446	12.0988	24.9244	22.4495	#	H
366	1	3	0.166628	10.8632	1.73485	23.5743	#	H
367	1	3	0.156959	12.7028	1.36881	23.5589	#	H
368	1	3	0.156209	12.1652	2.75374	22.618	#	H
369	1	3	0.083051	22.1371	21.6532	11.6296	#	H
370	1	3	0.132846	24.1948	21.8987	8.19522	#	H
371	1	3	0.158437	23.2882	24.7536	8.68939	#	H
372	1	3	0.159125	22.8734	24.0044	7.13305	#	H
373	1	3	0.164069	21.5319	24.7225	8.09856	#	H
374	1	3	0.082781	25.3348	20.436	13.1551	#	H
375	1	3	0.130606	21.7336	18.7072	11.8118	#	H
376	1	3	0.159055	21.7118	18.3292	15.7246	#	H
377	1	3	0.165903	20.5278	19.1029	14.514	#	H
378	1	3	0.16152	21.0678	17.4377	14.2299	#	H
379	1	3	0.079215	23.9004	19.1493	7.68445	#	H
380	1	3	0.12718	25.216	17.5088	11.2512	#	H
381	1	3	0.157667	24.8951	14.3729	9.23162	#	H
382	1	3	0.164541	26.2583	15.3215	8.65766	#	H
383	1	3	0.15519	25.8772	15.2962	10.4444	#	H
384	1	3	0.082155	26.6878	19.0013	9.61227	#	H
385	1	3	0.125446	25.2203	22.6362	11.3219	#	H
386	1	3	0.166628	3.02482	22.5826	11.8027	#	H
387	1	3	0.156959	1.92156	23.9098	11.2926	#	H
388	1	3	0.156209	1.77506	23.0211	12.8383	#	H
389	1	3	0.083051	5.74245	21.4421	14.9928	#	H
390	1	3	0.132846	3.94558	21.2347	18.7026	#	H
391	1	3	0.158437	4.71458	23.556	19.5887	#	H
392	1	3	0.159125	6.25674	24.2171	19.0203	#	H
393	1	3	0.164069	4.73479	24.5133	18.1254	#	H
394	1	3	0.082781	2.43289	20.7309	13.6348	#	H
395	1	3	0.130606	5.78118	18.6678	14.6802	#	H
396	1	3	0.159055	5.23045	17.1941	11.7349	#	H
397	1	3	0.165903	5.83016	18.7741	11.0793	#	H
398	1	3	0.16152	6.66668	17.9616	12.3653	#	H
399	1	3	0.079215	4.22389	18.7894	18.819	#	H
400	1	3	0.12718	3.02578	17.2715	15.079	#	H
401	1	3	0.157667	2.03731	14.6222	17.7658	#	H
402	1	3	0.164541	0.960606	15.6921	17.0307	#	H
403	1	3	0.15519	2.27573	14.8356	16.0078	#	H
404	1	3	0.082155	1.03393	18.7051	16.879	#	H
405	1	3	0.125446	2.48143	22.4624	15.5768	#	H
406	1	3	0.166628	25.6536	23.5856	16.3616	#	H
407	1	3	0.156959	25.787	23.4571	14.4822	#	H
408	1	3	0.156209	24.4021	22.6171	15.4897	#	H
409	1	3	0.083051	6.07726	5.33845	11.5468	#	H
410	1	3	0.132846	3.34117	4.84134	8.58136	#	H
411	1	3	0.158437	4.39205	2.79103	7.1175	#	H
412	1	3	0.159125	5.85239	2.16604	7.83567	#	H
413	1	3	0.164069	4.34765	2.03886	8.76506	#	H
414	1	3	0.082781	2.24087	6.38864	13.3246	#	H
415	1	3	0.130606	6.05618	7.56069	12.0716	#	H
416	1	3	0.159055	6.91913	8.30647	14.6085	#	H
417	1	3	0.165903	5.53084	9.56557	14.8063	#	H
418	1	3	0.16152	5.69178	8.19293	15.9352	#	H
419	1	3	0.079215	4.11319	7.77065	8.03572	#	H
420	1	3	0.12718	3.32869	9.33802	11.8862	#	H
421	1	3	0.157667	3.10222	12.3835	10.4082	#	H
422	1	3	0.164541	1.67168	11.8326	9.33848	#	H
423	1	3	0.15519	1.79179	11.4371	11.1322	#	H
424	1	3	0.082155	1.01106	7.66067	9.96269	#	H
425	1	3	0.125446	2.2976	4.33002	11.7899	#	H
426	1	3	0.166628	26.3233	2.90668	11.2625	#	H
427	1	3	0.156959	25.0017	4.01524	11.6117	#	H
428	1	3	0.156209	25.2299	3.6084	9.91187	#	H
429	1	3	0.083051	21.9055	5.25607	15.1857	#	H
430	1	3	0.132846	23.8029	5.52074	18.7378	#	H
431	1	3	0.158437	23.3319	2.39123	18.4891	#	H
432	1	3	0.159125	22.7406	3.28969	19.8153	#	H
433	1	3	0.164069	21.5275	2.32417	18.9626	#	H
434	1	3	0.082781	25.3282	5.8745	13.397	#	H
435	1	3	0.130607	22.2415	8.35485	14.8655	#	H
436	1	3	0.159055	21.8784	9.52412	11.844	#	H
437	1	3	0.165903	22.0295	7.89979	10.9716	#	H
438	1	3	0.16152	20.9961	8.18174	12.3728	#	H
439	1	3	0.079215	23.4429	7.87794	18.5502	#	H
440	1	3	0.12718	25.5825	9.21278	15.1788	#	H
441	1	3	0.157667	24.6119	12.2291	16.4795	#	H
442	1	3	0.164541	26.0457	11.9269	17.7046	#	H
443	1	3	0.15519	26.3094	11.5878	16.0096	#	H
444	1	3	0.082155	26.9081	7.33945	17.3969	#	H
445	1	3	0.125446	25.2663	4.15878	15.0559	#	H
446	1	3	0.166628	2.9205	4.10663	15.148	#	H
447	1	3	0.156959	1.90653	2.81338	16.0026	#	H
448	1	3	0.156209	1.37441	3.44587	14.4271	#	H
449	1	3	0.083051	21.6947	15.4298	5.52459	#	H
450	1	3	0.132846	22.2006	18.4389	2.70554	#	H
451	1	3	0.158437	24.317	19.4773	3.62735	#	H
452	1	3	0.159125	23.9358	19.8903	5.32793	#	H
453	1	3	0.164069	25.2633	18.6838	4.92222	#	H
454	1	3	0.082781	20.8082	13.5496	1.82353	#	H
455	1	3	0.130606	18.9091	14.8902	5.26369	#	H
456	1	3	0.159055	18.7214	12.3856	6.49605	#	H
457	1	3	0.165903	17.8773	11.9094	5.04478	#	H
458	1	3	0.16152	19.2988	10.9662	5.74074	#	H
459	1	3	0.079215	19.585	18.8912	3.47457	#	H
460	1	3	0.12718	17.8092	15.2972	2.27636	#	H
461	1	3	0.157667	15.2245	18.058	1.48888	#	H
462	1	3	0.164541	15.7179	16.3043	1.17693	#	H
463	1	3	0.15519	14.9091	16.8429	2.77936	#	H
464	1	3	0.082155	19.3946	16.9594	0.541155	#	H
465	1	3	0.125446	23.0125	15.4388	1.90691	#	H
466	1	3	0.166628	24.3937	15.6955	25.6132	#	H
467	1	3	0.156959	23.3043	14.4634	24.7616	#	H
468	1	3	0.156209	23.5718	16.2635	24.152	#	H
469	1	3	0.083051	21.8307	11.7795	21.3798	#	H
470	1	3	0.132846	21.9098	8.30744	23.6802	#	H
471	1	3	0.158437	24.654	7.91538	20.8025	#	H
472	1	3	0.159125	24.7423	8.20783	22.484	#	H
473	1	3	0.164069	23.7501	6.87867	22.0707	#	H
474	1	3	0.082781	20.7993	13.5066	24.9167	#	H
475	1	3	0.130606	18.846	12.1168	21.5975	#	H
476	1	3	0.159055	18.9237	15.994	21.224	#	H
477	1	3	0.165903	18.2969	14.4292	20.3144	#	H
478	1	3	0.16152	17.4738	14.9158	21.8689	#	H
479	1	3	0.079215	19.3527	8.14332	23.3974	#	H
480	1	3	0.12718	17.8206	11.8573	24.6055	#	H
481	1	3	0.157667	14.7719	10.6693	24.4326	#	H
482	1	3	0.164541	15.0874	9.27121	25.4474	#	H
483	1	3	0.15519	15.6653	10.8699	25.9333	#	H
484	1	3	0.082155	19.6591	9.6414	26.2838	#	H
485	1	3	0.125446	23.077	11.6677	24.6962	#	H
486	1	3	0.166628	24.3215	11.4841	0.966285	#	H
487	1	3	0.156959	23.723	12.9229	1.4617	#	H
488	1	3	0.156209	23.4324	11.6077	2.47494	#	H
489	1	3	0.083051	5.706	14.9816	21.5665	#	H
490	1	3	0.132846	5.55068	18.3173	23.7048	#	H
491	1	3	0.158437	3.47898	19.5344	22.5691	#	H
492	1	3	0.159125	3.22746	19.0091	20.9197	#	H
493	1	3	0.164069	2.35482	18.1551	22.2539	#	H
494	1	3	0.082781	6.5745	13.5815	25.1393	#	H
495	1	3	0.130607	8.44616	14.592	21.4915	#	H
496	1	3	0.159055	8.26826	10.7784	21.4985	#	H
497	1	3	0.165903	8.75504	12.1773	20.4582	#	H
498	1	3	0.16152	9.90607	11.6439	21.7431	#	H
499	1	3	0.079215	8.18165	18.7076	23.1068	#	H
500	1	3	0.12718	9.89974	15.0815	24.3399	#	H
501	1	3	0.157667	11.6408	17.1546	26.0936	#	H
502	1	3	0.164541	12.0648	15.8	25.055	#	H
503	1	3	0.15519	12.8863	17.3563	24.7599	#	H
504	1	3	0.082155	8.37569	16.8949	26.1551	#	H
505	1	3	0.125446	4.59554	15.4384	24.8956	#	H
506	1	3	0.166628	3.78838	14.5407	1.14772	#	H
507	1	3	0.156959	4.78802	14.7173	2.57482	#	H
508	1	3	0.156209	3.63344	16.0631	2.10175	#	H
509	1	3	0.083051	6.22446	11.2562	6.0411	#	H
510	1	3	0.132846	5.32365	8.31263	3.06627	#	H
511	1	3	0.158437	2.83238	7.98405	6.20447	#	H
512	1	3	0.159125	2.62402	7.85168	4.39288	#	H
513	1	3	0.164069	3.86121	6.92488	5.32372	#	H
514	1	3	0.082781	6.598	13.3309	2.03738	#	H
515	1	3	0.130606	8.63689	11.9336	5.3436	#	H
516	1	3	0.159055	10.0974	14.7545	5.24036	#	H
517	1	3	0.165903	8.68329	16.0009	5.66772	#	H
518	1	3	0.16152	9.21533	14.4907	6.59565	#	H
519	1	3	0.079215	8.02671	8.05874	3.09547	#	H
520	1	3	0.12718	9.8049	11.8506	2.82182	#	H
521	1	3	0.157667	11.8314	9.37409	0.972501	#	H
522	1	3	0.164541	11.986	11.0318	1.60755	#	H
523	1	3	0.15519	12.7464	9.68925	2.46195	#	H
524	1	3	0.082155	8.25179	9.91527	0.757074	#	H
525	1	3	0.125446	4.66131	11.5472	2.11135	#	H
526	1	3	0.166628	4.10253	12.6617	25.6825	#	H
527	1	3	0.156959	4.70259	11.7388	24.2364	#	H
528	1	3	0.156209	3.31907	11.1243	25.3764	#	H
529	1	4	0.108541	21.9187	16.3341	21.3633	#	C
530	1	4	0.228715	22.3185	18.0806	22.4983	#	C
531	1	4	-0.197094	23.2284	17.9866	21.4152	#	C
532	1	5	-0.515371	22.4111	19.0144	23.6969	#	C
533	1	4	0.122286	24.2423	13.5285	19.9644	#	C
534	1	4	0.23047	22.801	12.9014	18.6002	#	C
535	1	4	-0.190173	22.6062	14.2703	18.892	#	C
536	1	5	-0.520638	21.8208	12.0405	17.7701	#	C
537	1	4	0.11874	23.7285	17.9452	18.138	#	C
538	1	4	0.227063	24.5467	17.0754	16.3272	#	C
539	1	4	-0.183484	24.6396	16.1111	17.3337	#	C
540	1	5	-0.516324	25.3815	16.9534	15.0599	#	C
541	1	4	0.122472	26.5866	16.374	19.9995	#	C
542	1	4	0.230511	1.17089	15.7074	21.9376	#	C
543	1	4	-0.189933	25.7991	15.6273	21.8511	#	C
544	1	5	-0.515778	2.07818	15.3573	23.128	#	C
545	1	4	0.108541	5.50217	10.544	21.6262	#	C
546	1	4	0.228715	5.16631	8.72777	22.7449	#	C
547	1	4	-0.197094	4.35485	8.72317	21.6328	#	C
548	1	5	-0.51537	5.03661	7.72711	23.8952	#	C
549	1	4	0.122286	3.13436	13.2072	20.1887	#	C
550	1	4	0.23047	4.83931	13.8261	18.9931	#	C
551	1	4	-0.190173	4.93451	12.5032	19.167	#	C
552	1	5	-0.520638	5.96409	14.7156	18.6023	#	C
553	1	4	0.11874	3.53683	8.71982	18.347	#	C
554	1	4	0.227063	3.0202	9.69854	16.4784	#	C
555	1	4	-0.183484	3.12891	10.6485	17.4455	#	C
556	1	5	-0.516324	2.11482	9.87687	15.2578	#	C
557	1	4	0.122472	0.924525	10.2674	19.9201	#	C
558	1	4	0.230511	26.2528	10.7808	21.8025	#	C
559	1	4	-0.189933	1.65647	11.0264	21.7835	#	C
560	1	5	-0.515778	25.4434	11.3901	22.7822	#	C
561	1	4	0.108541	5.74815	16.5499	5.40884	#	C
562	1	4	0.228716	5.06923	17.9642	3.94629	#	C
563	1	4	-0.197094	4.12556	17.8874	4.92765	#	C
564	1	5	-0.515371	5.23777	19.2618	3.09937	#	C
565	1	4	0.122286	3.42874	13.5799	6.73146	#	C
566	1	4	0.23047	5.09603	12.9639	7.89622	#	C
567	1	4	-0.190173	5.18486	14.3416	7.70558	#	C
568	1	5	-0.520638	5.85005	12.1937	8.92493	#	C
569	1	4	0.11874	3.63308	18.078	8.52291	#	C
570	1	4	0.227063	2.90438	17.1333	10.3342	#	C
571	1	4	-0.183484	3.13639	16.168	9.38148	#	C
572	1	5	-0.516324	2.16513	16.9841	11.6359	#	C
573	1	4	0.122472	0.977582	16.4044	7.05824	#	C
574	1	4	0.230511	26.4356	15.4526	4.70007	#	C
575	1	4	-0.189933	1.68383	15.8139	5.04641	#	C
576	1	5	-0.515778	25.6532	15.1203	3.47432	#	C
577	1	4	0.108541	22.0857	10.1756	5.24228	#	C
578	1	4	0.228716	22.7644	8.98973	3.61109	#	C
579	1	4	-0.197094	23.8552	9.14844	4.48441	#	C
580	1	5	-0.51537	22.7996	8.12654	2.34333	#	C
581	1	4	0.122286	24.3044	13.2836	6.3248	#	C
582	1	4	0.23047	22.6851	13.9314	7.50791	#	C
583	1	4	-0.190173	22.6706	12.5555	7.40943	#	C
584	1	5	-0.520638	21.9923	14.6684	8.65489	#	C
585	1	4	0.11874	24.0647	8.69157	8.24382	#	C
586	1	4	0.227063	24.4703	9.74671	10.0923	#	C
587	1	4	-0.183484	24.4301	10.6328	9.04409	#	C
588	1	5	-0.516324	25.17	9.97797	11.4426	#	C
589	1	4	0.122472	26.8215	10.2947	6.7877	#	C
590	1	4	0.230511	1.33071	11.3316	5.3237	#	C
591	1	4	-0.189933	26.2029	11.1772	4.93849	#	C
592	1	5	-0.515778	2.10259	11.4367	4.06587	#	C
593	1	4	0.108541	21.8019	21.5287	16.1307	#	C
594	1	4	0.228715	22.8156	21.6137	18.001	#	C
595	1	4	-0.197094	21.8454	22.6525	17.9719	#	C
596	1	5	-0.515371	24.102	21.6551	18.8123	#	C
597	1	4	0.122286	20.2781	24.0247	13.5737	#	C
598	1	4	0.23047	19.7198	22.0833	12.829	#	C
599	1	4	-0.190173	19.5318	22.0943	14.1942	#	C
600	1	5	-0.520638	19.0009	21.1407	11.913	#	C
601	1	4	0.11874	18.7459	23.7382	18.1584	#	C
602	1	4	0.227063	16.8741	24.2064	17.2673	#	C
603	1	4	-0.183484	17.7253	23.7579	16.2622	#	C
604	1	5	-0.516324	15.7608	25.1514	17.0081	#	C
605	1	4	0.122472	20.0872	26.2291	16.3409	#	C
606	1	4	0.230511	22.1344	0.797854	16.1484	#	C
607	1	4	-0.189933	22.0574	25.4146	16.128	#	C
608	1	5	-0.515778	23.2109	1.61332	15.4184	#	C
609	1	4	0.108541	22.0997	5.17776	10.8328	#	C
610	1	4	0.228715	23.0038	4.91849	8.89462	#	C
611	1	4	-0.197094	21.8571	4.10915	8.97414	#	C