Created for MAPCIP

        1036 atoms
        1416 bonds
        3620 angles
        1536 dihedrals

           7 atom types
           6 bond types
          11 angle types
           1 dihedral types
           0.000000  31.70309315 xlo xhi
           0.000000  31.70309315 ylo yhi
           0.000000  30.01625011 zlo zhi
           0.000000   0.000000   0.000000 xy xz yz

Masses

    1    69.723000000 # Ga6f3
    2    30.973762000 # P_3+q
    3    15.999400000 # O_3
    4    15.999400000 # O_2
    5    15.999400000 # O_2_z
    6    16.0 # O_ads
    7    0.001 # com

Bond Coeffs

    1      123.853363        2.239317  # Ga6f3 O_3
    2      148.568756        2.107539  # Ga6f3 O_2_z
    3      128.007097        2.214828  # Ga6f3 O_2
    4      452.305500        1.690874  # P_3+q O_3
    5      471.759940        1.667304  # P_3+q O_2
    6      1000.0	0.605  # O_ads com

Angle Coeffs

    1              cosine/periodic      165.921228               1               4 # O_3 Ga6f3 O_3
    2              cosine/periodic      180.890655               1               4 # O_3 Ga6f3 O_2_z
    3              cosine/periodic      199.031419               1               4 # O_2_z Ga6f3 O_2_z
    4              cosine/periodic      168.655086               1               4 # O_3 Ga6f3 O_2
    5              cosine/periodic      184.177687               1               4 # O_2_z Ga6f3 O_2
    6                      fourier      222.518988        0.343737        0.374972        0.281246 # O_3 P_3+q O_3
    7                      fourier      227.216290        0.343737        0.374972        0.281246 # O_3 P_3+q O_2
    8                      fourier      151.920283        0.300235        0.267331        0.266745 # Ga6f3 O_3 P_3+q
    9              cosine/periodic       56.593652              -1               3 # Ga6f3 O_2_z Ga6f3
   10              cosine/periodic       48.761189              -1               3 # Ga6f3 O_2 Ga6f3
   11              cosine/periodic      1000	1	1 # ads com ads

Dihedral Coeffs

    1        0.136931               1               2 # O_3 P_3+q O_3 Ga6f3

Atoms

1	1	1	1.406842	2.93986	3.34232	8.27834	#	Ga
2	1	1	1.439854	0.501571	1.68513	5.62794	#	Ga
3	1	1	1.406842	10.7985	11.1955	23.4307	#	Ga
4	1	1	1.439854	8.43298	9.71688	20.6287	#	Ga
5	1	1	1.406845	3.95392	11.3231	23.3438	#	Ga
6	1	1	1.439858	6.29404	12.9307	20.6157	#	Ga
7	1	1	1.406845	11.8602	3.455	8.33938	#	Ga
8	1	1	1.439858	14.2631	4.95823	5.5645	#	Ga
9	1	1	1.406845	7.55205	6.89807	15.7351	#	Ga
10	1	1	1.439865	8.97128	4.39012	13.1218	#	Ga
11	1	1	1.406845	15.2786	14.8096	0.942076	#	Ga
12	1	1	1.439865	1.09358	12.2728	28.1361	#	Ga
13	1	1	1.406844	31.1961	7.72173	0.749914	#	Ga
14	1	1	1.439864	13.5397	10.317	28.2401	#	Ga
15	1	1	1.406844	7.17733	-0.00431604	15.7439	#	Ga
16	1	1	1.439864	5.67508	2.45565	13.1809	#	Ga
17	1	1	1.406838	11.8122	11.4794	20.6861	#	Ga
18	1	1	1.439857	14.1872	13.0209	23.4498	#	Ga
19	1	1	1.406838	3.91048	3.59447	5.49489	#	Ga
20	1	1	1.439858	6.24782	5.12782	8.24664	#	Ga
21	1	1	1.406838	10.7734	3.35343	5.54708	#	Ga
22	1	1	1.439862	8.22746	1.92063	8.28331	#	Ga
23	1	1	1.406838	2.91985	11.1489	20.6012	#	Ga
24	1	1	1.439862	0.470132	9.59688	23.3426	#	Ga
25	1	1	1.406845	7.28865	7.86693	13.0177	#	Ga
26	1	1	1.439861	5.83126	10.3123	15.7447	#	Ga
27	1	1	1.406845	31.005	-0.212531	28.0874	#	Ga
28	1	1	1.439861	13.5926	2.37418	0.755174	#	Ga
29	1	1	1.406849	15.3145	6.89372	28.2528	#	Ga
30	1	1	1.439865	1.19427	4.27146	0.714856	#	Ga
31	1	1	1.406849	7.5609	14.7898	13.1242	#	Ga
32	1	1	1.439864	8.99553	12.3376	15.8074	#	Ga
33	1	2	1.38585	3.28667	0.455364	6.76792	#	P
34	1	2	1.409605	2.90627	2.16774	2.89201	#	P
35	1	2	1.38585	11.1483	8.25383	21.8367	#	P
36	1	2	1.409605	10.7458	10.184	17.913	#	P
37	1	2	1.385853	3.56009	14.2842	21.8702	#	P
38	1	2	1.409602	4.01117	12.3341	17.8972	#	P
39	1	2	1.385853	11.5874	6.46542	6.83041	#	P
40	1	2	1.409603	11.9048	4.57256	2.85752	#	P
41	1	2	1.385865	10.4721	7.07229	14.1786	#	P
42	1	2	1.409593	8.49193	6.72844	10.3546	#	P
43	1	2	1.385865	2.42652	15.0283	29.2459	#	P
44	1	2	1.409593	0.660184	14.5503	25.351	#	P
45	1	2	1.38587	12.1857	7.6438	-0.54414	#	P
46	1	2	1.409591	14.0255	8.03607	25.5889	#	P
47	1	2	1.38587	4.32967	-0.341996	14.2346	#	P
48	1	2	1.409591	6.18943	0.135249	10.4052	#	P
49	1	2	1.385867	11.4703	14.3199	22.2426	#	P
50	1	2	1.40959	11.7408	12.4795	26.0725	#	P
51	1	2	1.385867	3.44953	6.35391	7.10162	#	P
52	1	2	1.409589	3.90604	4.54842	11.0444	#	P
53	1	2	1.385864	10.9109	0.441446	7.09871	#	P
54	1	2	1.409592	10.622	2.22072	10.9293	#	P
55	1	2	1.385863	3.1523	8.26848	22.1269	#	P
56	1	2	1.409592	2.83868	10.0676	26.0503	#	P
57	1	2	1.38586	4.3646	7.55628	14.5519	#	P
58	1	2	1.409605	6.40054	7.93698	18.3843	#	P
59	1	2	1.38586	12.1614	-0.386825	-0.495737	#	P
60	1	2	1.409605	14.1069	0.0396815	3.49684	#	P
61	1	2	1.385855	2.56035	6.88799	-0.541121	#	P
62	1	2	1.409607	0.744876	6.65998	3.3927	#	P
63	1	2	1.385855	10.4664	15.0627	14.6589	#	P
64	1	2	1.409607	8.47693	14.6708	18.4745	#	P
65	1	2	1.45282	7.32816	3.521	5.5282	#	P
66	1	2	1.452819	-0.51169	11.1953	20.5298	#	P
67	1	2	1.45282	7.38702	11.3032	13.0129	#	P
68	1	2	1.45282	31.2093	3.25445	28.06	#	P
69	1	2	1.452819	7.48141	11.2765	23.383	#	P
70	1	2	1.452819	31.1791	3.28659	8.28513	#	P
71	1	2	1.452828	7.32287	3.4367	15.8759	#	P
72	1	2	1.452827	31.1553	11.1763	0.857772	#	P
73	1	3	-0.575962	3.24776	1.19265	8.25518	#	O
74	1	3	-0.633895	1.63556	1.29268	3.61135	#	O
75	1	3	-0.599363	4.11774	1.20779	5.50534	#	O
76	1	3	-0.559717	2.58284	2.48186	1.23504	#	O
77	1	3	-0.579376	3.81873	3.087	10.2309	#	O
78	1	4	-0.307394	2.41361	5.34069	10.9672	#	O
79	1	3	-0.620669	7.58441	4.92873	6.37932	#	O
80	1	5	-0.731097	2.03424	3.26945	6.29045	#	O
81	1	3	-0.584721	8.69037	3.27689	4.53552	#	O
82	1	4	-0.338227	2.52025	7.74682	6.97538	#	O
83	1	3	-0.568265	5.04067	6.78367	7.34652	#	O
84	1	3	-0.575962	11.1498	8.95949	23.3509	#	O
85	1	3	-0.633895	9.51683	9.30928	18.6921	#	O
86	1	3	-0.599362	12.0861	9.06344	20.6064	#	O
87	1	3	-0.559717	10.4799	10.6839	16.3505	#	O
88	1	3	-0.579375	11.6115	11.0538	25.2648	#	O
89	1	4	-0.307394	10.2872	13.2591	26.1654	#	O
90	1	3	-0.620668	15.4665	12.7974	21.6339	#	O
91	1	5	-0.731097	10.0144	11.1502	21.47	#	O
92	1	3	-0.584721	0.89497	10.8552	19.5455	#	O
93	1	4	-0.338227	10.8365	0.03175	21.9235	#	O
94	1	3	-0.568265	13.0741	14.7648	22.552	#	O
95	1	3	-0.57596	3.67686	13.5021	23.4137	#	O
96	1	3	-0.633898	5.07928	13.3661	18.6748	#	O
97	1	3	-0.599363	2.814	13.4237	20.616	#	O
98	1	3	-0.559714	4.51438	12.0623	16.3453	#	O
99	1	3	-0.579379	3.0549	11.4853	25.3315	#	O
100	1	4	-0.307394	4.3056	9.27738	26.1359	#	O
101	1	3	-0.620686	30.8709	9.92224	21.4464	#	O
102	1	5	-0.731101	4.7875	11.3831	21.3734	#	O
103	1	3	-0.584718	13.8402	11.6836	19.6831	#	O
104	1	4	-0.338231	4.08718	6.87019	22.0313	#	O
105	1	3	-0.568268	1.53561	7.8417	22.457	#	O
106	1	3	-0.57596	11.6199	5.73582	8.38528	#	O
107	1	3	-0.633898	13.254	5.34742	3.51126	#	O
108	1	3	-0.599363	10.7055	5.67876	5.54541	#	O
109	1	3	-0.559714	12.0771	4.01024	1.29958	#	O
110	1	3	-0.579379	11.0543	3.63678	10.2904	#	O
111	1	4	-0.307394	11.7669	1.04048	10.885	#	O
112	1	3	-0.620687	7.16024	2.125	6.3636	#	O
113	1	5	-0.731101	12.684	3.49395	6.32612	#	O
114	1	3	-0.584717	5.98971	3.86372	4.54598	#	O
115	1	4	-0.338231	12.0061	14.8374	7.08815	#	O
116	1	3	-0.568268	9.35293	0.0989883	7.58748	#	O
117	1	3	-0.575964	9.75748	7.09951	15.7001	#	O
118	1	3	-0.6339	9.29419	5.40478	11.0837	#	O
119	1	3	-0.599364	9.60379	7.96491	12.9493	#	O
120	1	3	-0.559719	7.92074	6.5983	8.76225	#	O
121	1	3	-0.579374	7.81015	7.79645	17.6848	#	O
122	1	4	-0.30741	5.46418	6.48295	18.3069	#	O
123	1	3	-0.620675	6.03702	11.5403	13.9403	#	O
124	1	5	-0.731104	7.58104	6.01462	13.8647	#	O
125	1	3	-0.584724	7.74691	12.7062	12.0913	#	O
126	1	4	-0.338231	2.86422	6.74356	14.4195	#	O
127	1	3	-0.56826	4.00679	9.17808	14.7761	#	O
128	1	3	-0.575964	1.79692	14.9948	0.783499	#	O
129	1	3	-0.633899	1.58714	13.357	26.0866	#	O
130	1	3	-0.599365	1.65415	-0.141056	27.8759	#	O
131	1	3	-0.559719	0.293136	14.311	23.7407	#	O
132	1	3	-0.579374	15.4202	15.6363	2.87709	#	O
133	1	4	-0.30741	12.8849	14.7408	3.62646	#	O
134	1	3	-0.620676	13.761	3.56355	28.8311	#	O
135	1	5	-0.731105	31.3298	13.7932	28.8337	#	O
136	1	3	-0.584724	15.4629	4.86719	27.1331	#	O
137	1	4	-0.338231	10.732	14.7737	-0.501925	#	O
138	1	3	-0.56826	11.8054	1.23825	-0.142262	#	O
139	1	3	-0.575964	12.8493	7.66708	0.952319	#	O
140	1	3	-0.633899	13.1073	9.19755	26.3985	#	O
141	1	3	-0.599359	13.033	6.81142	28.2371	#	O
142	1	3	-0.55972	14.3325	8.55547	24.0219	#	O
143	1	3	-0.57937	31.01	6.86253	2.60991	#	O
144	1	4	-0.307408	1.44295	8.16123	3.46383	#	O
145	1	3	-0.620675	0.901858	3.02707	28.9119	#	O
146	1	5	-0.731105	14.9654	8.74364	29.049	#	O
147	1	3	-0.58472	30.8178	1.87951	27.1126	#	O
148	1	4	-0.338225	4.09947	7.58488	-0.823371	#	O
149	1	3	-0.568258	2.93311	5.29686	-0.188896	#	O
150	1	3	-0.575964	4.97237	-0.361856	15.7261	#	O
151	1	3	-0.633899	5.15707	1.18861	11.276	#	O
152	1	3	-0.599359	5.24541	14.5933	13.0884	#	O
153	1	3	-0.55972	6.40225	0.622448	8.83696	#	O
154	1	3	-0.57937	7.0219	30.8182	17.7379	#	O
155	1	4	-0.307408	9.45813	0.249828	18.4049	#	O
156	1	3	-0.620675	8.82278	11.195	13.871	#	O
157	1	5	-0.731104	7.13022	0.871025	13.8644	#	O
158	1	3	-0.584721	7.0683	9.9568	12.048	#	O
159	1	4	-0.338225	11.6986	0.113238	14.3394	#	O
160	1	3	-0.568258	10.8235	13.4681	15.0785	#	O
161	1	3	-0.575958	11.4633	13.6227	20.7131	#	O
162	1	3	-0.633901	12.9948	13.4154	25.4402	#	O
163	1	3	-0.599365	10.5986	13.4863	23.4467	#	O
164	1	3	-0.55972	12.0523	11.9954	27.683	#	O
165	1	3	-0.579372	10.9059	11.5801	18.8026	#	O
166	1	4	-0.307396	12.1868	9.35143	17.9686	#	O
167	1	3	-0.620675	7.19837	9.92467	22.3727	#	O
168	1	5	-0.731105	12.7092	11.5435	22.6677	#	O
169	1	3	-0.584725	6.11206	11.4514	24.3716	#	O
170	1	4	-0.338216	11.8636	6.78888	22.1793	#	O
171	1	3	-0.568257	9.45027	7.98941	21.4722	#	O
172	1	3	-0.575958	3.58788	5.65526	5.54245	#	O
173	1	3	-0.6339	5.12862	5.46798	10.2922	#	O
174	1	3	-0.599365	2.69136	5.52364	8.34673	#	O
175	1	3	-0.55972	4.17895	4.17644	12.6347	#	O
176	1	3	-0.579372	2.93746	3.65132	3.6004	#	O
177	1	4	-0.307397	4.37944	1.40212	3.00673	#	O
178	1	3	-0.620675	30.9445	1.84815	7.463	#	O
179	1	5	-0.731105	4.77792	3.63562	7.4385	#	O
180	1	3	-0.584725	13.8908	3.5969	9.26416	#	O
181	1	4	-0.338216	3.8252	14.7425	6.96875	#	O
182	1	3	-0.568257	1.70348	0.00912241	6.45522	#	O
183	1	3	-0.575959	10.9098	1.14485	5.60292	#	O
184	1	3	-0.633898	9.1844	1.68909	10.274	#	O
185	1	3	-0.599363	11.9326	1.17416	8.28291	#	O
186	1	3	-0.559723	10.2676	2.60517	12.5202	#	O
187	1	3	-0.579369	11.6339	3.18918	3.64826	#	O
188	1	4	-0.307395	10.5229	5.5226	2.89103	#	O
189	1	3	-0.620675	15.4693	4.70272	7.45866	#	O
190	1	5	-0.731101	9.9164	3.26312	7.56307	#	O
191	1	3	-0.584726	0.854689	3.09882	9.2653	#	O
192	1	4	-0.338211	10.8496	7.96963	7.07704	#	O
193	1	3	-0.568254	13.2354	6.6834	6.47692	#	O
194	1	3	-0.575959	3.16748	8.97695	20.5716	#	O
195	1	3	-0.633898	1.60709	9.19028	25.3333	#	O
196	1	3	-0.599363	4.03403	9.07783	23.3791	#	O
197	1	3	-0.559723	2.53365	10.5115	27.6456	#	O
198	1	3	-0.579369	3.92561	10.9203	18.6654	#	O
199	1	4	-0.307395	2.5275	13.1188	17.8479	#	O
200	1	3	-0.620674	7.62244	12.7396	22.5262	#	O
201	1	5	-0.731102	2.0332	11.1214	22.5721	#	O
202	1	3	-0.584726	8.81068	10.9474	24.4099	#	O
203	1	4	-0.338211	2.75845	-0.195611	22.1359	#	O
204	1	3	-0.568254	5.21582	14.7217	21.5874	#	O
205	1	3	-0.575958	5.0326	7.57058	13.0414	#	O
206	1	3	-0.633897	5.4537	9.15288	17.7062	#	O
207	1	3	-0.599364	5.33692	6.82037	15.7484	#	O
208	1	3	-0.559719	6.81272	8.28974	19.9865	#	O
209	1	3	-0.579374	7.07726	6.92525	11.1536	#	O
210	1	4	-0.307401	9.47801	8.01734	10.4416	#	O
211	1	3	-0.620687	8.71038	3.15763	14.9655	#	O
212	1	5	-0.7311	7.37342	8.8208	14.906	#	O
213	1	3	-0.584721	6.92101	2.09794	16.8023	#	O
214	1	4	-0.338232	11.8973	7.90139	14.3595	#	O
215	1	3	-0.568263	10.7449	5.40206	13.856	#	O
216	1	3	-0.575958	12.9411	-0.290303	28.008	#	O
217	1	3	-0.633897	13.1348	1.27151	2.77692	#	O
218	1	3	-0.599364	12.9614	14.6812	0.96076	#	O
219	1	3	-0.559719	14.6231	0.304501	5.04257	#	O
220	1	3	-0.579374	30.7228	30.5262	26.2578	#	O
221	1	4	-0.307401	1.20371	0.205103	25.4733	#	O
222	1	3	-0.620687	0.902609	11.1721	-0.0436022	#	O
223	1	5	-0.731099	15.1353	0.767753	-0.00521165	#	O
224	1	3	-0.584722	31.0965	9.76551	1.78656	#	O
225	1	4	-0.338232	4.03713	-0.396526	29.1144	#	O
226	1	3	-0.568263	2.7995	13.4256	28.9296	#	O
227	1	3	-0.575957	1.83285	6.907	27.9673	#	O
228	1	3	-0.633897	1.69608	5.47135	2.66331	#	O
229	1	3	-0.599368	1.85923	7.71226	0.789036	#	O
230	1	3	-0.559717	0.325544	6.21615	4.96219	#	O
231	1	3	-0.579378	15.4821	7.84625	26.2829	#	O
232	1	4	-0.307402	13.2911	6.52943	25.5605	#	O
233	1	3	-0.620687	13.8514	11.6602	0.00261925	#	O
234	1	5	-0.7311	-0.287093	5.89791	-0.0869888	#	O
235	1	3	-0.584724	15.5025	12.7505	1.98406	#	O
236	1	4	-0.338238	10.7342	6.82929	-0.312282	#	O
237	1	3	-0.568265	11.7789	9.22068	29.2067	#	O
238	1	3	-0.575957	9.74921	15.0417	13.1166	#	O
239	1	3	-0.633897	9.27588	13.3281	17.9005	#	O
240	1	3	-0.599367	9.38257	0.3142	15.7707	#	O
241	1	3	-0.559717	7.99177	14.438	20.0422	#	O
242	1	3	-0.579378	7.71268	15.7458	11.1269	#	O
243	1	4	-0.307402	5.47342	14.3946	10.4294	#	O
244	1	3	-0.620686	5.94591	3.77183	14.995	#	O
245	1	5	-0.7311	7.53242	13.906	15.0534	#	O
246	1	3	-0.584723	7.67647	4.8211	16.7383	#	O
247	1	4	-0.338238	2.85476	14.7605	14.4632	#	O
248	1	3	-0.568265	3.90656	1.28881	14.0405	#	O
249	1	4	-0.539733	31.0829	3.24059	4.65668	#	O
250	1	4	-0.539733	7.44028	11.3427	19.6586	#	O
251	1	4	-0.539735	7.27266	3.44017	12.1784	#	O
252	1	4	-0.539734	31.2443	11.2218	27.2287	#	O
253	1	4	-0.539741	31.2124	11.2241	24.2671	#	O
254	1	4	-0.539741	7.27243	3.63565	9.20882	#	O
255	1	4	-0.539739	7.44529	11.2841	16.6922	#	O
256	1	4	-0.539739	31.193	3.35797	1.64929	#	O
257	1	1	1.406842	2.76595	19.0152	8.25508	#	Ga
258	1	1	1.439854	0.304846	17.6302	5.48387	#	Ga
259	1	1	1.406842	10.7257	27.1012	23.3706	#	Ga
260	1	1	1.439854	8.32978	25.6687	20.6561	#	Ga
261	1	1	1.406845	3.87434	27.1632	23.3387	#	Ga
262	1	1	1.439858	6.371	28.8518	20.6565	#	Ga
263	1	1	1.406845	11.834	19.434	8.36536	#	Ga
264	1	1	1.439858	14.281	21.0083	5.71141	#	Ga
265	1	1	1.406845	7.44865	22.7738	15.743	#	Ga
266	1	1	1.439865	8.98352	20.3059	13.0618	#	Ga
267	1	1	1.406845	15.3339	30.5942	0.763835	#	Ga
268	1	1	1.439865	0.98348	28.0208	28.0716	#	Ga
269	1	1	1.406844	31.0094	23.5407	0.729221	#	Ga
270	1	1	1.439864	13.7352	26.1813	28.1937	#	Ga
271	1	1	1.406844	7.2868	15.816	15.7966	#	Ga
272	1	1	1.439864	5.76264	18.1982	13.0627	#	Ga
273	1	1	1.406838	11.6794	27.3409	20.6353	#	Ga
274	1	1	1.439857	14.2241	28.8104	23.2919	#	Ga
275	1	1	1.406838	3.81439	19.2387	5.52359	#	Ga
276	1	1	1.439858	6.25652	20.7214	8.24491	#	Ga
277	1	1	1.406838	10.8737	19.1997	5.65785	#	Ga
278	1	1	1.439862	8.46108	17.6116	8.31434	#	Ga
279	1	1	1.406838	2.92301	27.0026	20.5391	#	Ga
280	1	1	1.439862	0.408396	25.4103	23.1967	#	Ga
281	1	1	1.406845	7.22174	23.8375	12.9726	#	Ga
282	1	1	1.439861	5.63889	26.2086	15.7061	#	Ga
283	1	1	1.406845	30.9881	15.6679	28.0262	#	Ga
284	1	1	1.439861	13.618	18.3015	0.892268	#	Ga
285	1	1	1.406849	15.4152	22.7561	28.184	#	Ga
286	1	1	1.439865	0.953181	20.0072	0.694324	#	Ga
287	1	1	1.406849	7.44807	30.657	13.0664	#	Ga
288	1	1	1.439864	8.90803	28.2401	15.8393	#	Ga
289	1	2	1.38585	3.02459	16.1488	6.69265	#	P
290	1	2	1.409605	2.70503	17.9363	2.79949	#	P
291	1	2	1.38585	10.9345	24.2409	21.7769	#	P
292	1	2	1.409605	10.6856	26.1351	17.9719	#	P
293	1	2	1.385853	3.62167	30.1189	21.8816	#	P
294	1	2	1.409602	3.98243	28.402	17.9609	#	P
295	1	2	1.385853	11.4907	22.361	6.82395	#	P
296	1	2	1.409603	12.0037	20.4264	2.99735	#	P
297	1	2	1.385865	10.3247	23.1287	14.1235	#	P
298	1	2	1.409593	8.57827	22.5878	10.3288	#	P
299	1	2	1.385865	2.50755	30.7078	29.094	#	P
300	1	2	1.409593	0.43114	30.4573	25.408	#	P
301	1	2	1.38587	12.2497	23.5232	29.3846	#	P
302	1	2	1.409591	14.1296	23.9008	25.525	#	P
303	1	2	1.38587	4.33545	15.4542	14.2623	#	P
304	1	2	1.409591	6.2557	15.8456	10.4098	#	P
305	1	2	1.385867	11.488	30.1875	22.1291	#	P
306	1	2	1.40959	12.0106	28.3765	26.1027	#	P
307	1	2	1.385867	3.56294	22.1561	7.0393	#	P
308	1	2	1.409589	3.96771	20.2664	10.9697	#	P
309	1	2	1.385864	11.2591	16.3308	7.17709	#	P
310	1	2	1.409592	10.6989	18.1125	10.9729	#	P
311	1	2	1.385863	3.14206	24.0759	22.0308	#	P
312	1	2	1.409592	2.66539	25.7787	25.9547	#	P
313	1	2	1.38586	4.27953	23.4955	14.4835	#	P
314	1	2	1.409605	6.19514	23.8999	18.4709	#	P
315	1	2	1.38586	12.2039	15.5577	-0.29388	#	P
316	1	2	1.409605	13.9847	15.9998	3.6156	#	P
317	1	2	1.385855	2.37507	22.7427	-0.497668	#	P
318	1	2	1.409607	0.489456	22.3607	3.37648	#	P
319	1	2	1.385855	10.2371	31.0307	14.6446	#	P
320	1	2	1.409607	8.46325	30.6503	18.5332	#	P
321	1	2	1.45282	7.38644	19.107	5.53903	#	P
322	1	2	1.452819	-0.520818	27.1349	20.4617	#	P
323	1	2	1.45282	7.32754	27.211	13.049	#	P
324	1	2	1.45282	31.0473	19.0445	27.9227	#	P
325	1	2	1.452819	7.27093	27.272	23.42	#	P
326	1	2	1.452819	31.0652	19.2294	8.24367	#	P
327	1	2	1.452828	7.35193	19.285	15.7964	#	P
328	1	2	1.452827	31.1504	27.0191	0.897226	#	P
329	1	3	-0.575962	2.9127	16.8326	8.21322	#	O
330	1	3	-0.633895	1.37603	17.1773	3.5164	#	O
331	1	3	-0.599363	3.87598	16.9162	5.43853	#	O
332	1	3	-0.559717	2.37385	18.2647	1.17001	#	O
333	1	3	-0.579376	3.61216	18.8174	10.2401	#	O
334	1	4	-0.307394	2.56738	21.1203	10.9856	#	O
335	1	3	-0.620669	7.42212	20.4897	6.36441	#	O
336	1	5	-0.731097	1.8615	19.0141	6.25108	#	O
337	1	3	-0.584721	8.81645	18.9641	4.64294	#	O
338	1	4	-0.338227	2.7668	23.6547	6.93634	#	O
339	1	3	-0.568265	5.17534	22.5002	7.40358	#	O
340	1	3	-0.575962	10.9484	24.9143	23.3555	#	O
341	1	3	-0.633895	9.53855	25.0967	18.6949	#	O
342	1	3	-0.599362	11.8021	25.0312	20.4609	#	O
343	1	3	-0.559717	10.3748	26.5462	16.3958	#	O
344	1	3	-0.579375	11.6271	26.9673	25.2876	#	O
345	1	4	-0.307394	10.6583	29.2635	26.2475	#	O
346	1	3	-0.620668	15.5121	28.4956	21.5348	#	O
347	1	5	-0.731097	9.86953	27.0917	21.4388	#	O
348	1	3	-0.584721	0.869214	26.8571	19.5272	#	O
349	1	4	-0.338227	10.5771	15.7737	22.1116	#	O
350	1	3	-0.568265	13.1109	30.5213	22.3743	#	O
351	1	3	-0.57596	3.55835	29.2727	23.3678	#	O
352	1	3	-0.633898	5.2484	29.2696	18.6497	#	O
353	1	3	-0.599363	2.88575	29.3184	20.5558	#	O
354	1	3	-0.559714	4.20872	27.9313	16.3657	#	O
355	1	3	-0.579379	2.90443	27.2289	25.2185	#	O
356	1	4	-0.307394	3.98199	24.8311	25.9652	#	O
357	1	3	-0.620686	30.9608	25.7387	21.3189	#	O
358	1	5	-0.731101	4.80743	27.2737	21.37	#	O
359	1	3	-0.584718	13.8133	27.5721	19.5838	#	O
360	1	4	-0.338231	3.9849	22.6637	21.7942	#	O
361	1	3	-0.568268	1.50698	23.6602	22.3092	#	O
362	1	3	-0.57596	11.5231	21.6816	8.37154	#	O
363	1	3	-0.633898	13.2142	21.3718	3.63436	#	O
364	1	3	-0.599363	10.6351	21.3761	5.66596	#	O
365	1	3	-0.559714	12.2317	20.0505	1.36197	#	O
366	1	3	-0.579379	11.0007	19.5136	10.2627	#	O
367	1	4	-0.307394	12.102	17.1596	10.9593	#	O
368	1	3	-0.620687	7.33805	17.7263	6.41934	#	O
369	1	5	-0.731101	12.7042	19.4955	6.43706	#	O
370	1	3	-0.584717	5.98394	19.2476	4.57241	#	O
371	1	4	-0.338231	11.6666	30.5965	6.85209	#	O
372	1	3	-0.568268	9.70132	15.9357	7.56928	#	O
373	1	3	-0.575964	9.75714	23.1924	15.6775	#	O
374	1	3	-0.6339	9.30653	21.254	11.0365	#	O
375	1	3	-0.599364	9.46123	23.9924	12.9485	#	O
376	1	3	-0.559719	8.01063	22.1293	8.75693	#	O
377	1	3	-0.579374	7.57812	23.7208	17.6756	#	O
378	1	4	-0.30741	5.42307	22.4203	18.4496	#	O
379	1	3	-0.620675	5.94033	27.5308	13.8814	#	O
380	1	5	-0.731104	7.46465	21.8887	13.7795	#	O
381	1	3	-0.584724	7.67334	28.5413	12.1157	#	O
382	1	4	-0.338231	2.85355	22.7036	14.1835	#	O
383	1	3	-0.56826	3.95072	25.1313	14.7511	#	O
384	1	3	-0.575964	1.81075	30.7435	0.643849	#	O
385	1	3	-0.633899	1.35165	29.1486	26.0073	#	O
386	1	3	-0.599365	1.59581	15.9564	28.0831	#	O
387	1	3	-0.559719	-0.0203432	30.1692	23.8437	#	O
388	1	3	-0.579374	15.5672	-0.12017	2.74002	#	O
389	1	4	-0.30741	13.2282	30.3233	3.53256	#	O
390	1	3	-0.620676	13.8992	19.3472	29.0872	#	O
391	1	5	-0.731105	-0.39768	29.6208	28.9064	#	O
392	1	3	-0.584724	15.5085	20.6588	27.1	#	O
393	1	4	-0.338231	10.7482	30.5389	-0.797628	#	O
394	1	3	-0.56826	11.8595	17.1604	0.12129	#	O
395	1	3	-0.575964	12.9866	23.4704	0.858481	#	O
396	1	3	-0.633899	13.1288	25.0358	26.2678	#	O
397	1	3	-0.599359	13.1399	22.6944	28.1494	#	O
398	1	3	-0.55972	14.4827	24.3108	23.9759	#	O
399	1	3	-0.57937	30.824	22.6045	2.61116	#	O
400	1	4	-0.307408	1.36794	23.7273	3.35065	#	O
401	1	3	-0.620675	0.739999	18.8862	28.8494	#	O
402	1	5	-0.731105	15.1809	24.5986	28.9706	#	O
403	1	3	-0.58472	30.6741	17.7002	26.9961	#	O
404	1	4	-0.338225	3.89472	23.4866	29.412	#	O
405	1	3	-0.568258	2.69264	21.1477	-0.150268	#	O
406	1	3	-0.575964	4.98828	15.5545	15.8081	#	O
407	1	3	-0.633899	5.34833	17.1717	10.9991	#	O
408	1	3	-0.599359	5.2236	30.4746	13.0154	#	O
409	1	3	-0.55972	6.71504	16.1261	8.8234	#	O
410	1	3	-0.57937	7.03914	14.9562	17.7076	#	O
411	1	4	-0.307408	9.48577	16.0067	18.5612	#	O
412	1	3	-0.620675	8.7312	27.0335	13.907	#	O
413	1	5	-0.731104	7.33638	16.6822	13.8664	#	O
414	1	3	-0.584721	6.98847	25.9159	11.9886	#	O
415	1	4	-0.338225	11.9445	15.7352	14.4264	#	O
416	1	3	-0.568258	10.6405	29.4553	15.0651	#	O
417	1	3	-0.575958	11.3496	29.4278	20.6712	#	O
418	1	3	-0.633901	13.1765	29.2978	25.3202	#	O
419	1	3	-0.599365	10.5964	29.4069	23.3939	#	O
420	1	3	-0.55972	12.4173	27.9105	27.626	#	O
421	1	3	-0.579372	10.7601	27.5439	18.7452	#	O
422	1	4	-0.307396	12.1289	25.3928	17.9438	#	O
423	1	3	-0.620675	7.04512	25.9615	22.4473	#	O
424	1	5	-0.731105	12.6138	27.3571	22.5635	#	O
425	1	3	-0.584725	5.91708	27.4314	24.4222	#	O
426	1	4	-0.338216	11.723	22.7707	21.9945	#	O
427	1	3	-0.568257	9.2524	23.8667	21.5374	#	O
428	1	3	-0.575958	3.76769	21.431	5.51988	#	O
429	1	3	-0.6339	5.15669	21.1775	10.1331	#	O
430	1	3	-0.599365	2.77375	21.3045	8.31334	#	O
431	1	3	-0.55972	4.37894	19.9458	12.544	#	O
432	1	3	-0.579372	2.95655	19.4473	3.48039	#	O
433	1	4	-0.307397	4.12047	17.002	2.86211	#	O
434	1	3	-0.620675	30.8826	17.8702	7.33748	#	O
435	1	5	-0.731105	4.67458	19.1589	7.50535	#	O
436	1	3	-0.584725	13.9562	19.5912	9.38735	#	O
437	1	4	-0.338216	4.04602	30.7225	7.00747	#	O
438	1	3	-0.568257	1.3988	15.8398	6.31147	#	O
439	1	3	-0.575959	11.2975	17.0146	5.66836	#	O
440	1	3	-0.633898	9.42889	17.2775	10.3725	#	O
441	1	3	-0.599363	12.0642	17.2382	8.38127	#	O
442	1	3	-0.559723	10.4366	18.6018	12.5893	#	O
443	1	3	-0.579369	11.7247	19.0073	3.74347	#	O
444	1	4	-0.307395	10.5821	21.3252	3.06848	#	O
445	1	3	-0.620675	15.4656	20.7977	7.53917	#	O
446	1	5	-0.731101	10.0174	19.176	7.54741	#	O
447	1	3	-0.584726	0.704162	18.982	9.19935	#	O
448	1	4	-0.338211	10.6916	23.8185	6.9979	#	O
449	1	3	-0.568254	13.1149	22.739	6.49992	#	O
450	1	3	-0.575959	3.17664	24.8052	20.5397	#	O
451	1	3	-0.633898	1.35206	24.9975	25.3288	#	O
452	1	3	-0.599363	4.03608	24.8095	23.308	#	O
453	1	3	-0.559723	2.36164	26.142	27.5404	#	O
454	1	3	-0.579369	3.81415	26.9418	18.6487	#	O
455	1	4	-0.307395	2.56105	29.3224	18.0039	#	O
456	1	3	-0.620674	7.51314	28.673	22.5544	#	O
457	1	5	-0.731102	2.0175	26.9236	22.5188	#	O
458	1	3	-0.584726	8.59962	26.8566	24.3771	#	O
459	1	4	-0.338211	2.6599	15.685	22.0843	#	O
460	1	3	-0.568254	5.19956	30.5263	21.5575	#	O
461	1	3	-0.575958	5.05559	23.5651	12.9835	#	O
462	1	3	-0.633897	5.16103	24.9469	17.6594	#	O
463	1	3	-0.599364	5.11098	22.6978	15.7642	#	O
464	1	3	-0.559719	6.57849	24.2497	20.0954	#	O
465	1	3	-0.579374	7.1434	22.9647	11.0403	#	O
466	1	4	-0.307401	9.57268	23.9071	10.2358	#	O
467	1	3	-0.620687	8.72168	19.1571	14.8706	#	O
468	1	5	-0.7311	7.11367	24.6648	14.8813	#	O
469	1	3	-0.584721	7.1499	17.9103	16.7488	#	O
470	1	4	-0.338232	11.7648	23.9791	14.1552	#	O
471	1	3	-0.568263	10.6833	21.5275	13.8638	#	O
472	1	3	-0.575958	12.8989	15.5073	28.203	#	O
473	1	3	-0.633897	13.1903	17.312	2.91699	#	O
474	1	3	-0.599364	12.9977	30.4655	0.757356	#	O
475	1	3	-0.559719	14.4347	16.3562	5.21911	#	O
476	1	3	-0.579374	30.9222	14.7696	26.1558	#	O
477	1	4	-0.307401	1.48354	16.0284	25.3516	#	O
478	1	3	-0.620687	0.80446	26.8698	-0.0620436	#	O
479	1	5	-0.731099	15.0447	16.6984	0.106986	#	O
480	1	3	-0.584722	30.8305	25.5844	1.79337	#	O
481	1	4	-0.338232	3.90021	15.8085	29.3675	#	O
482	1	3	-0.568263	2.67354	29.0801	28.7998	#	O
483	1	3	-0.575957	1.611	22.7198	28.007	#	O
484	1	3	-0.633897	1.28958	20.9979	2.83972	#	O
485	1	3	-0.599368	1.52003	23.6173	0.759547	#	O
486	1	3	-0.559717	-0.0185602	22.2652	4.94877	#	O
487	1	3	-0.579378	15.605	23.6184	26.2523	#	O
488	1	4	-0.307402	13.3506	22.3824	25.4815	#	O
489	1	3	-0.620687	14.086	27.4266	-0.138032	#	O
490	1	5	-0.7311	-0.535997	21.6624	-0.112781	#	O
491	1	3	-0.584724	15.5301	28.5356	1.79417	#	O
492	1	4	-0.338238	10.7381	22.8127	-0.573834	#	O
493	1	3	-0.568265	12.0129	25.2386	29.1583	#	O
494	1	3	-0.575957	9.62039	30.9001	13.107	#	O
495	1	3	-0.633897	9.28057	29.2974	17.9419	#	O
496	1	3	-0.599367	9.65964	15.9238	15.8781	#	O
497	1	3	-0.559717	8.03131	30.4461	20.131	#	O
498	1	3	-0.579378	7.61561	-0.107906	11.1362	#	O
499	1	4	-0.307402	5.43787	30.3765	10.3583	#	O
500	1	3	-0.620686	5.92751	19.4453	14.9282	#	O
501	1	5	-0.7311	7.40524	29.7602	15.0311	#	O
502	1	3	-0.584723	7.63989	20.6836	16.7496	#	O
503	1	4	-0.338238	2.89576	30.5531	14.3609	#	O
504	1	3	-0.568265	4.05844	17.0788	13.9239	#	O
505	1	4	-0.539733	-0.668957	19.2428	4.48484	#	O
506	1	4	-0.539733	7.42094	27.3189	19.6273	#	O
507	1	4	-0.539735	7.3701	19.2218	12.2084	#	O
508	1	4	-0.539734	31.0717	27.0945	27.1605	#	O
509	1	4	-0.539741	-0.609268	27.0768	24.1395	#	O
510	1	4	-0.539741	7.27533	19.1639	9.19657	#	O
511	1	4	-0.539739	7.23939	27.1527	16.7086	#	O
512	1	4	-0.539739	31.0804	18.9879	1.60571	#	O
513	1	1	1.406842	18.6764	3.2041	8.21591	#	Ga
514	1	1	1.439854	16.2766	1.73575	5.54079	#	Ga
515	1	1	1.406842	26.6648	11.095	23.423	#	Ga
516	1	1	1.439854	24.2287	9.56467	20.747	#	Ga
517	1	1	1.406845	19.7585	11.358	23.4805	#	Ga
518	1	1	1.439858	22.2561	12.8266	20.7944	#	Ga
519	1	1	1.406845	27.649	3.42495	8.28413	#	Ga
520	1	1	1.439858	30.1374	4.86428	5.53038	#	Ga
521	1	1	1.406845	23.2742	6.82252	15.9024	#	Ga
522	1	1	1.439865	24.7186	4.38811	13.1266	#	Ga
523	1	1	1.406845	31.2288	14.6572	0.746663	#	Ga
524	1	1	1.439865	16.7984	12.3002	28.2876	#	Ga
525	1	1	1.406844	15.0366	7.94017	0.951046	#	Ga
526	1	1	1.439864	29.6332	10.1712	28.0403	#	Ga
527	1	1	1.406844	22.9657	-0.0310885	15.8144	#	Ga
528	1	1	1.439864	21.4718	2.31887	13.0889	#	Ga
529	1	1	1.406838	27.7108	11.2063	20.6628	#	Ga
530	1	1	1.439857	30.1322	12.8343	23.2807	#	Ga
531	1	1	1.406838	19.754	3.45972	5.48595	#	Ga
532	1	1	1.439858	22.1286	4.96202	8.24003	#	Ga
533	1	1	1.406838	26.7091	3.21478	5.54983	#	Ga
534	1	1	1.439862	24.1579	1.73581	8.24778	#	Ga
535	1	1	1.406838	18.6781	11.2173	20.7933	#	Ga
536	1	1	1.439862	16.1991	9.82961	23.4626	#	Ga
537	1	1	1.406845	23.0201	7.89993	13.1558	#	Ga
538	1	1	1.439861	21.4889	10.2631	15.862	#	Ga
539	1	1	1.406845	15.1966	-0.0406936	27.9908	#	Ga
540	1	1	1.439861	29.5946	2.31258	0.808634	#	Ga
541	1	1	1.406849	31.3479	6.70235	27.9394	#	Ga
542	1	1	1.439865	16.7537	4.43263	0.833545	#	Ga
543	1	1	1.406849	23.3511	14.811	13.119	#	Ga
544	1	1	1.439864	24.7707	12.2866	15.853	#	Ga
545	1	2	1.38585	19.0155	0.316245	6.77539	#	P
546	1	2	1.409605	18.5834	2.11597	2.83897	#	P
547	1	2	1.38585	26.9324	8.14449	21.8881	#	P
548	1	2	1.409605	26.512	9.92742	17.937	#	P
549	1	2	1.385853	19.546	14.3533	21.9975	#	P
550	1	2	1.409602	19.9298	12.4011	18.0789	#	P
551	1	2	1.385853	27.5086	6.37076	6.64294	#	P
552	1	2	1.409603	27.8566	4.53427	2.82854	#	P
553	1	2	1.385865	26.1376	7.03255	14.3095	#	P
554	1	2	1.409593	24.2623	6.71791	10.4978	#	P
555	1	2	1.385865	18.2008	14.9821	29.4292	#	P
556	1	2	1.409593	16.4125	14.68	25.5853	#	P
557	1	2	1.38587	28.21	7.53324	29.2292	#	P
558	1	2	1.409591	30.0042	7.85878	25.3978	#	P
559	1	2	1.38587	20.1039	-0.403014	14.1789	#	P
560	1	2	1.409591	22.0414	-0.0301985	10.3481	#	P
561	1	2	1.385867	27.3644	14.1592	22.1947	#	P
562	1	2	1.40959	27.8723	12.4285	26.0613	#	P
563	1	2	1.385867	19.4233	6.33432	7.04743	#	P
564	1	2	1.409589	19.7109	4.46513	10.9571	#	P
565	1	2	1.385864	26.8843	0.307458	7.09345	#	P
566	1	2	1.409592	26.554	2.15317	11.0299	#	P
567	1	2	1.385863	18.8555	8.32703	22.3106	#	P
568	1	2	1.409592	18.5627	10.1962	26.1802	#	P
569	1	2	1.38586	20.0551	7.54125	14.7772	#	P
570	1	2	1.409605	22.0794	7.96673	18.5996	#	P
571	1	2	1.38586	28.1545	-0.450922	29.7322	#	P
572	1	2	1.409605	30.1766	0.0286432	3.58137	#	P
573	1	2	1.385855	18.1092	7.14114	-0.271674	#	P
574	1	2	1.409607	16.4228	6.75437	3.56022	#	P
575	1	2	1.385855	26.244	14.9441	14.6434	#	P
576	1	2	1.409607	24.4094	14.5276	18.6492	#	P
577	1	2	1.45282	23.2029	3.30037	5.42924	#	P
578	1	2	1.452819	15.1758	11.4246	20.6918	#	P
579	1	2	1.45282	23.1024	11.4061	13.0861	#	P
580	1	2	1.45282	15.1914	3.4362	27.9704	#	P
581	1	2	1.452819	23.1833	11.0746	23.5039	#	P
582	1	2	1.452819	15.2133	3.32628	8.31535	#	P
583	1	2	1.452828	22.9922	3.43108	15.8956	#	P
584	1	2	1.452827	15.2287	11.4071	0.995303	#	P
585	1	3	-0.575962	19.0138	1.03978	8.2988	#	O
586	1	3	-0.633895	17.4576	1.21191	3.59091	#	O
587	1	3	-0.599363	19.9125	1.18759	5.49185	#	O
588	1	3	-0.559717	18.1916	2.57419	1.23503	#	O
589	1	3	-0.579376	19.5403	3.02073	10.2044	#	O
590	1	4	-0.307394	18.3256	5.4134	10.9069	#	O
591	1	3	-0.620669	23.374	4.69226	6.40561	#	O
592	1	5	-0.731097	17.8359	3.2305	6.26245	#	O
593	1	3	-0.584721	24.6179	3.01402	4.50265	#	O
594	1	4	-0.338227	18.4479	7.68598	6.87243	#	O
595	1	3	-0.568265	21.0511	6.75208	7.3784	#	O
596	1	3	-0.575962	26.9147	8.88802	23.4422	#	O
597	1	3	-0.633895	25.2466	9.12225	18.7361	#	O
598	1	3	-0.599362	27.9137	8.89496	20.6659	#	O
599	1	3	-0.559717	26.1273	10.4723	16.3377	#	O
600	1	3	-0.579375	27.5133	10.9941	25.3337	#	O
601	1	4	-0.307394	26.4625	13.3518	26.1413	#	O
602	1	3	-0.620668	-0.327798	12.6626	21.3614	#	O
603	1	5	-0.731097	25.8453	10.9927	21.4911	#	O
604	1	3	-0.584721	16.5746	11.1247	19.7993	#	O
605	1	4	-0.338227	26.5067	-0.209991	21.6027	#	O
606	1	3	-0.568265	28.9581	14.5977	22.4739	#	O
607	1	3	-0.57596	19.6598	13.5649	23.481	#	O
608	1	3	-0.633898	21.2533	13.2835	18.7334	#	O
609	1	3	-0.599363	18.7484	13.4512	20.7547	#	O
610	1	3	-0.559714	20.0806	11.991	16.4446	#	O
611	1	3	-0.579379	18.9054	11.5791	25.4028	#	O
612	1	4	-0.307394	19.9144	9.16533	26.0914	#	O
613	1	3	-0.620686	14.9172	10.0727	21.5963	#	O