Created for MOF-5

         472 atoms
         512 bonds
         912 angles
         960 dihedrals
         576 impropers

           7 atom types
           6 bond types
           9 angle types
           3 dihedral types
           1 improper types

           0.01608171889 25.87581828 xlo xhi
           -0.03338711411 25.92528711 ylo yhi
           -0.01908643513 25.91098644 zlo zhi
           0.05529260863 -0.1553758387 -0.3948299423 xy xz yz

Masses

    1    65.380000000 # Zn3f2
    2    15.999400000 # O_3_f
    3    15.999400000 # O_2
    4    12.010700000 # C_R
    5     1.007940000 # H_
    6     1.0 # H
    7    12.0 # C

Bond Coeffs

    1      122.127512        2.014866  # Zn3f2 O_3_f
    2      714.557442        1.269010  # O_2 C_R
    3      391.669513        1.458000  # C_R C_R
    4      462.655054        1.379256  # C_R C_R
    5      357.440381        1.081418  # C_R H_
    6      1000.0	1.54  # C C

Angle Coeffs

    1                      fourier      131.511072        0.343737        0.374972        0.281246 # O_3_f Zn3f2 O_2
    2                      fourier       42.532620        0.343737        0.374972        0.281246 # Zn3f2 O_3_f Zn3f2
    3              cosine/periodic       84.412329              -1               3 # Zn3f2 O_2 C_R
    4              cosine/periodic      275.428492              -1               3 # O_2 C_R C_R
    5              cosine/periodic      413.556852              -1               3 # O_2 C_R O_2
    6              cosine/periodic      204.366560              -1               3 # C_R C_R C_R
    7              cosine/periodic      222.595017              -1               3 # C_R C_R C_R
    8              cosine/periodic      114.578032              -1               3 # C_R C_R H_
    9              harmonic	62.1	112	# C C C

Dihedral Coeffs

    1	harmonic        2.245703              -1               2 # Zn3f2 O_2 C_R O_2
    2	harmonic        0.555556              -1               2 # O_2 C_R C_R C_R
    3	harmonic        1.497136              -1               2 # C_R C_R C_R C_R

Improper Coeffs

    1        2.000000        1.000000       -1.000000        0.000000               0 # O_2 C_R C_R O_2

Pair Coeffs

    1        0.124000        2.461553 # Zn3f2 Zn3f2
    2        0.060000        3.118146 # O_3_f O_3_f
    3        0.060000        3.118146 # O_2 O_2
    4        0.105000        3.430851 # C_R C_R
    5        0.044000        2.571134 # H_ H_
    6        0.0299     2.42 # H
    7        0.0700     3.55 # C

Atoms

	1	1	1	0	5.43698	7.4856	5.43908	#	Zn
	2	1	1	0	20.7225	18.0994	20.0985	#	Zn
	3	1	1	0	20.6399	18.3196	5.19678	#	Zn
	4	1	1	0	5.05227	7.05737	20.6994	#	Zn
	5	1	1	0	20.003	7.34457	20.8609	#	Zn
	6	1	1	0	5.5765	18.1937	5.22013	#	Zn
	7	1	1	0	5.38213	17.9945	20.4416	#	Zn
	8	1	1	0	20.2824	7.46509	5.53069	#	Zn
	9	1	1	0	5.1548	5.14704	7.6085	#	Zn
	10	1	1	0	20.6777	20.4797	18.1023	#	Zn
	11	1	1	0	5.46591	20.0878	18.0946	#	Zn
	12	1	1	0	20.451	5.33492	7.7421	#	Zn
	13	1	1	0	20.662	20.5933	7.26999	#	Zn
	14	1	1	0	5.03923	5.05032	18.5656	#	Zn
	15	1	1	0	20.1631	5.31356	18.5567	#	Zn
	16	1	1	0	5.66148	20.325	7.49223	#	Zn
	17	1	1	0	7.54857	5.20066	5.56551	#	Zn
	18	1	1	0	18.5046	20.3538	20.2792	#	Zn
	19	1	1	0	17.9754	5.03097	20.7228	#	Zn
	20	1	1	0	7.73238	20.4626	5.25836	#	Zn
	21	1	1	0	7.56237	20.1377	20.3469	#	Zn
	22	1	1	0	18.1494	5.41799	5.76534	#	Zn
	23	1	1	0	18.5574	20.5887	5.12336	#	Zn
	24	1	1	0	7.24255	4.82119	20.7399	#	Zn
	25	1	1	0	7.56419	17.7819	18.2198	#	Zn
	26	1	1	0	18.2708	7.54063	7.91257	#	Zn
	27	1	1	0	18.4338	18.368	7.33345	#	Zn
	28	1	1	0	7.32927	7.04903	18.4761	#	Zn
	29	1	1	0	7.408	7.43305	7.95113	#	Zn
	30	1	1	0	18.4353	18.155	18.1046	#	Zn
	31	1	1	0	17.924	7.35282	18.5316	#	Zn
	32	1	1	0	7.84384	18.2059	7.38967	#	Zn
	33	1	2	0	6.34919	6.26454	6.7108	#	O
	34	1	2	0	19.5271	19.2898	19.142	#	O
	35	1	2	0	19.6132	19.517	6.19315	#	O
	36	1	2	0	6.216	6.0459	19.6681	#	O
	37	1	2	0	19.0231	6.32806	19.7076	#	O
	38	1	2	0	6.75455	19.2982	6.25986	#	O
	39	1	2	0	6.51873	18.9477	19.2397	#	O
	40	1	2	0	19.2246	6.39664	6.74365	#	O
	41	1	3	0	6.39346	7.50884	3.63435	#	O
	42	1	3	0	20.0131	18.1766	22.051	#	O
	43	1	3	0	19.9356	18.4174	3.23996	#	O
	44	1	3	0	5.0487	6.32065	22.5245	#	O
	45	1	3	0	19.873	6.48103	22.6758	#	O
	46	1	3	0	5.6425	18.7116	3.26086	#	O
	47	1	3	0	6.09874	18.0026	22.2764	#	O
	48	1	3	0	19.2523	7.48654	3.7277	#	O
	49	1	3	0	3.24943	5.927	7.22582	#	O
	50	1	3	0	22.5078	19.7816	18.1184	#	O
	51	1	3	0	3.64821	19.3906	18.1035	#	O
	52	1	3	0	22.3032	6.11332	7.43007	#	O
	53	1	3	0	22.4406	19.821	7.40637	#	O
	54	1	3	0	3.08739	5.1159	19.2602	#	O
	55	1	3	0	22.0553	5.38085	19.4816	#	O
	56	1	3	0	3.74362	20.3873	6.77829	#	O
	57	1	3	0	7.43412	3.34356	6.26435	#	O
	58	1	3	0	18.5323	22.2616	19.6208	#	O
	59	1	3	0	18.9903	3.28456	20.6002	#	O
	60	1	3	0	6.82129	22.2827	5.36202	#	O
	61	1	3	0	7.59749	22.0454	19.6198	#	O
	62	1	3	0	18.2291	3.45965	6.44586	#	O
	63	1	3	0	18.4498	22.4054	5.89955	#	O
	64	1	3	0	6.38047	3.05027	20.527	#	O
	65	1	3	0	7.16511	5.64498	22.6317	#	O
	66	1	3	0	19.586	20.5776	3.29842	#	O
	67	1	3	0	19.3124	20.2939	22.1167	#	O
	68	1	3	0	6.87694	5.31002	3.62182	#	O
	69	1	3	0	7.6563	19.6736	3.36112	#	O
	70	1	3	0	17.8815	5.60226	22.6371	#	O
	71	1	3	0	18.7243	5.33918	3.79731	#	O
	72	1	3	0	6.66823	20.1159	22.2002	#	O
	73	1	3	0	5.6801	3.08635	18.3995	#	O
	74	1	3	0	20.5597	22.4106	6.52219	#	O
	75	1	3	0	20.3541	3.43526	6.92135	#	O
	76	1	3	0	5.52407	22.0726	18.7831	#	O
	77	1	3	0	20.5983	22.3962	18.9195	#	O
	78	1	3	0	5.33417	3.32214	6.93752	#	O
	79	1	3	0	6.33817	22.2291	7.55008	#	O
	80	1	3	0	19.4848	3.36438	18.4322	#	O
	81	1	3	0	3.2098	7.22685	19.8775	#	O
	82	1	3	0	22.6004	18.9857	5.39752	#	O
	83	1	3	0	3.64977	18.3537	5.847	#	O
	84	1	3	0	21.9726	7.41997	20.342	#	O
	85	1	3	0	22.2068	6.72764	5.28332	#	O
	86	1	3	0	3.63803	19.0309	20.281	#	O
	87	1	3	0	22.5771	18.8299	20.0898	#	O
	88	1	3	0	3.5234	6.85662	5.23584	#	O
	89	1	3	0	6.20766	19.9193	16.1652	#	O
	90	1	3	0	19.7221	5.50285	9.70172	#	O
	91	1	3	0	20.1524	6.09279	16.7141	#	O
	92	1	3	0	5.78858	19.5116	9.3714	#	O
	93	1	3	0	19.7896	20.4662	9.116	#	O
	94	1	3	0	5.02978	5.93183	16.7077	#	O
	95	1	3	0	5.5846	5.30206	9.57564	#	O
	96	1	3	0	20.0565	20.3585	16.227	#	O
	97	1	3	0	7.27451	15.8069	18.8321	#	O
	98	1	3	0	18.2782	9.42217	7.08218	#	O
	99	1	3	0	18.4118	16.4948	6.6121	#	O
	100	1	3	0	6.44744	8.94529	18.5449	#	O
	101	1	3	0	7.33709	9.33592	7.28384	#	O
	102	1	3	0	18.5944	16.2147	18.8261	#	O
	103	1	3	0	18.5667	9.25107	18.7297	#	O
	104	1	3	0	6.99683	16.3103	7.37617	#	O
	105	1	3	0	7.90893	19.1537	9.2581	#	O
	106	1	3	0	17.9917	6.75271	16.5917	#	O
	107	1	3	0	19.1667	7.61613	9.68299	#	O
	108	1	3	0	7.03812	17.8949	16.2505	#	O
	109	1	3	0	7.22991	6.41567	16.5559	#	O
	110	1	3	0	19.1807	18.3719	9.18324	#	O
	111	1	3	0	19.0393	18.3354	16.1738	#	O
	112	1	3	0	6.647	7.24785	9.77782	#	O
	113	1	3	0	6.19135	16.3327	5.29192	#	O
	114	1	3	0	19.1926	9.20388	20.8502	#	O
	115	1	3	0	20.7023	16.1971	19.4696	#	O
	116	1	3	0	5.47308	9.2965	6.15826	#	O
	117	1	3	0	20.3219	9.37698	6.21103	#	O
	118	1	3	0	5.26523	16.0582	19.7491	#	O
	119	1	3	0	5.67923	9.03813	20.6047	#	O
	120	1	3	0	20.5661	16.407	5.99025	#	O
	121	1	3	0	16.1562	5.05101	19.9305	#	O
	122	1	3	0	9.62324	20.4271	6.04141	#	O
	123	1	3	0	16.6398	19.8028	5.00959	#	O
	124	1	3	0	9.09734	4.86714	19.9056	#	O
	125	1	3	0	9.43691	19.4487	20.4213	#	O
	126	1	3	0	16.2234	6.18443	5.89805	#	O
	127	1	3	0	9.40571	5.94275	5.7415	#	O
	128	1	3	0	16.5636	19.6799	20.2087	#	O
	129	1	3	0	16.3789	6.76177	8.05324	#	O
	130	1	3	0	9.49501	18.3421	18.4797	#	O
	131	1	3	0	16.5865	18.7708	18.1886	#	O
	132	1	3	0	9.34101	6.75117	7.81215	#	O
	133	1	3	0	9.24317	7.00395	19.2187	#	O
	134	1	3	0	16.5771	19.1739	7.14667	#	O
	135	1	3	0	9.65787	18.2487	6.46613	#	O
	136	1	3	0	16.1249	7.16999	19.2086	#	O
	137	1	4	0	6.63773	6.40374	2.9892	#	C
	138	1	4	0	19.6111	19.2148	22.7294	#	C
	139	1	4	0	19.7659	19.5309	2.63684	#	C
	140	1	4	0	6.05877	5.84791	23.1932	#	C
	141	1	4	0	18.8212	6.12835	23.302	#	C
	142	1	4	0	6.68566	19.2523	2.66339	#	C
	143	1	4	0	6.51711	19.0161	22.8535	#	C
	144	1	4	0	18.9245	6.39253	3.13142	#	C
	145	1	4	0	2.78589	6.29254	6.08456	#	C
	146	1	4	0	23.1619	19.3741	19.112	#	C
	147	1	4	0	3.01787	19.1684	19.1895	#	C
	148	1	4	0	22.8777	6.28325	6.26942	#	C
	149	1	4	0	23.127	19.3855	6.4768	#	C
	150	1	4	0	2.50792	6.16184	19.6489	#	C
	151	1	4	0	22.6442	6.37226	19.9799	#	C
	152	1	4	0	3.06946	19.3868	6.3798	#	C
	153	1	4	0	6.3753	2.70963	6.55507	#	C
	154	1	4	0	19.5996	22.9166	19.4937	#	C
	155	1	4	0	19.1856	2.69886	19.4837	#	C
	156	1	4	0	6.52489	22.8873	6.45449	#	C
	157	1	4	0	6.54667	22.6915	19.2358	#	C
	158	1	4	0	19.2985	2.81563	6.77544	#	C
	159	1	4	0	19.4925	23.0318	6.32514	#	C
	160	1	4	0	5.9693	2.41276	19.4658	#	C
	161	1	4	0	6.75709	18.9324	15.6022	#	C
	162	1	4	0	19.496	6.56756	10.3244	#	C
	163	1	4	0	19.1446	6.53902	16.0244	#	C
	164	1	4	0	6.9055	19.4265	9.91697	#	C
	165	1	4	0	19.3647	19.433	9.77424	#	C
	166	1	4	0	6.16303	5.98259	16.0185	#	C
	167	1	4	0	6.04335	6.26181	10.2926	#	C
	168	1	4	0	19.4926	19.3671	15.5622	#	C
	169	1	4	0	6.16641	15.3135	19.2484	#	C
	170	1	4	0	19.3631	10.0105	6.69912	#	C
	171	1	4	0	19.4585	15.8299	6.38574	#	C
	172	1	4	0	6.01319	9.61716	19.5512	#	C
	173	1	4	0	6.47415	9.94373	6.56826	#	C
	174	1	4	0	19.6168	15.5582	19.2305	#	C
	175	1	4	0	18.9709	9.84263	19.7993	#	C
	176	1	4	0	6.55985	15.718	6.35937	#	C
	177	1	4	0	15.5342	6.01739	19.4122	#	C
	178	1	4	0	10.2814	19.3099	6.20071	#	C
	179	1	4	0	15.9831	19.3231	6.00898	#	C
	180	1	4	0	9.78477	5.86327	19.4901	#	C
	181	1	4	0	10.1266	18.8544	19.4677	#	C
	182	1	4	0	15.7045	6.27668	7.07687	#	C
	183	1	4	0	9.97216	6.41621	6.76578	#	C
	184	1	4	0	15.939	19.1746	19.2245	#	C
	185	1	4	0	6.57184	6.41915	1.50418	#	C
	186	1	4	0	19.5576	19.2141	24.2067	#	C
	187	1	4	0	19.7683	19.5974	1.09106	#	C
	188	1	4	0	6.00239	5.78724	24.6478	#	C
	189	1	4	0	18.7926	6.0314	24.7558	#	C
	190	1	4	0	6.77703	19.1924	1.18991	#	C
	191	1	4	0	6.48858	19.041	24.33	#	C
	192	1	4	0	18.9063	6.36029	1.62502	#	C
	193	1	4	0	1.31019	6.19065	5.87505	#	C
	194	1	4	0	24.6292	19.2922	19.0661	#	C
	195	1	4	0	1.57694	19.2187	19.1783	#	C
	196	1	4	0	24.3476	6.25058	6.12068	#	C
	197	1	4	0	24.6319	19.3321	6.58317	#	C
	198	1	4	0	1.04409	6.20132	19.986	#	C
	199	1	4	0	24.0868	6.27665	20.2674	#	C
	200	1	4	0	1.57008	19.3181	6.57293	#	C
	201	1	4	0	6.41784	1.24017	6.52673	#	C
	202	1	4	0	19.585	24.4073	19.6174	#	C
	203	1	4	0	19.3289	1.2681	19.4894	#	C
	204	1	4	0	6.41373	24.3634	6.38589	#	C
	205	1	4	0	6.58071	24.1412	19.1499	#	C
	206	1	4	0	19.3984	1.33912	6.6506	#	C
	207	1	4	0	19.4734	24.4784	6.41069	#	C
	208	1	4	0	6.22588	0.965083	19.3173	#	C
	209	1	4	0	6.99619	18.945	14.1716	#	C
	210	1	4	0	19.4842	6.58139	11.803	#	C
	211	1	4	0	19.2138	6.54757	14.5742	#	C
	212	1	4	0	6.93303	19.3231	11.3949	#	C
	213	1	4	0	19.4051	19.4359	11.2209	#	C
	214	1	4	0	6.11347	5.96708	14.5434	#	C
	215	1	4	0	6.0431	6.10519	11.7583	#	C
	216	1	4	0	19.5137	19.3825	14.0801	#	C
	217	1	4	0	5.96716	13.8607	19.2566	#	C
	218	1	4	0	19.3147	11.4724	6.51065	#	C
	219	1	4	0	19.3768	14.3001	6.37631	#	C
	220	1	4	0	5.90228	11.0954	19.4314	#	C
	221	1	4	0	6.58397	11.448	6.3628	#	C
	222	1	4	0	19.4379	14.0991	19.5885	#	C
	223	1	4	0	19.176	11.2835	19.7971	#	C
	224	1	4	0	6.5709	14.2413	6.34448	#	C
	225	1	4	0	14.0379	6.019	19.3954	#	C
	226	1	4	0	11.7509	19.2619	6.10027	#	C
	227	1	4	0	14.5417	19.2529	5.93155	#	C
	228	1	4	0	11.2241	5.73095	19.3032	#	C
	229	1	4	0	11.5743	18.8396	19.4806	#	C
	230	1	4	0	14.2275	6.1869	7.12294	#	C
	231	1	4	0	11.4438	6.32443	6.86595	#	C
	232	1	4	0	14.4404	19.0528	19.2719	#	C
	233	1	4	0	5.67467	7.29209	0.828193	#	C
	234	1	4	0	19.2374	20.4063	24.947	#	C
	235	1	4	0	19.3465	20.7602	0.414732	#	C
	236	1	4	0	5.43126	6.8717	25.3585	#	C
	237	1	4	0	19.9415	6.5402	25.5359	#	C
	238	1	4	0	7.80349	19.8832	0.5103	#	C
	239	1	4	0	7.53451	19.6524	25.0408	#	C
	240	1	4	0	20.0026	6.89097	0.994531	#	C
	241	1	4	0	0.626276	5.03027	6.24471	#	C
	242	1	4	0	25.315	18.0961	19.3838	#	C
	243	1	4	0	0.840482	18.0959	19.5524	#	C
	244	1	4	0	25.0903	5.10832	6.41447	#	C
	245	1	4	0	25.3573	20.3169	7.27148	#	C
	246	1	4	0	0.344571	7.43458	20.1175	#	C
	247	1	4	0	24.8496	7.44109	20.3416	#	C
	248	1	4	0	0.841862	20.2282	7.38893	#	C
	249	1	4	0	6.9305	0.625691	5.41765	#	C
	250	1	4	0	18.4131	25.0407	19.9624	#	C
	251	1	4	0	18.2502	0.498066	19.8867	#	C
	252	1	4	0	7.07715	25.1539	5.39073	#	C
	253	1	4	0	7.02583	24.8163	20.2597	#	C
	254	1	4	0	19.9868	0.575525	7.62288	#	C
	255	1	4	0	20.1156	25.1443	7.52882	#	C
	256	1	4	0	6.90375	0.264604	20.3284	#	C
	257	1	4	0	6.85167	4.92374	25.338	#	C
	258	1	4	0	20.1665	18.463	0.349774	#	C
	259	1	4	0	19.9348	18.0422	24.8856	#	C
	260	1	4	0	7.30036	5.50165	0.715142	#	C
	261	1	4	0	5.76786	18.5673	0.461853	#	C
	262	1	4	0	17.6517	5.55421	25.4488	#	C
	263	1	4	0	17.8349	5.84945	0.910846	#	C
	264	1	4	0	5.51426	18.3411	24.993	#	C
	265	1	4	0	5.858	0.292101	18.1435	#	C
	266	1	4	0	18.8883	25.2484	5.3807	#	C
	267	1	4	0	18.8631	0.724288	5.48708	#	C
	268	1	4	0	6.08594	24.8654	18.0591	#	C
	269	1	4	0	20.7112	25.2187	19.2257	#	C
	270	1	4	0	5.70568	0.455114	7.50002	#	C
	271	1	4	0	5.86715	25.0098	7.47953	#	C
	272	1	4	0	20.5477	0.676515	19.1129	#	C
	273	1	4	0	0.29868	5.04482	20.0516	#	C
	274	1	4	0	25.3472	18.2374	6.02935	#	C
	275	1	4	0	0.840963	18.2386	6.0357	#	C
	276	1	4	0	24.7717	5.05866	20.1334	#	C
	277	1	4	0	25.0552	7.36064	5.55352	#	C
	278	1	4	0	0.905472	20.3253	18.6017	#	C
	279	1	4	0	25.395	20.3903	18.5855	#	C
	280	1	4	0	0.62273	7.32571	5.43507	#	C
	281	1	4	0	7.91185	19.8041	13.5793	#	C
	282	1	4	0	19.0816	7.72715	12.5062	#	C
	283	1	4	0	18.9925	7.74369	13.8902	#	C
	284	1	4	0	7.92878	19.9926	12.1566	#	C
	285	1	4	0	20.1214	18.3918	11.928	#	C
	286	1	4	0	7.35158	5.88411	13.8408	#	C
	287	1	4	0	7.29914	6.03235	12.4546	#	C
	288	1	4	0	20.2262	18.4192	13.3387	#	C
	289	1	4	0	5.40328	13.2523	20.3351	#	C
	290	1	4	0	20.1371	12.1705	5.58786	#	C
	291	1	4	0	20.1817	13.5551	5.53746	#	C
	292	1	4	0	5.27088	11.8412	20.4364	#	C
	293	1	4	0	7.65643	12.1392	6.95679	#	C
	294	1	4	0	20.5519	13.2937	19.9694	#	C
	295	1	4	0	20.4046	11.877	20.0425	#	C
	296	1	4	0	7.5543	13.5548	7.02107	#	C
	297	1	4	0	6.08055	18.4402	12.0457	#	C
	298	1	4	0	19.6342	5.40383	13.9104	#	C
	299	1	4	0	19.6364	5.38884	12.5288	#	C
	300	1	4	0	6.03428	18.3053	13.3836	#	C
	301	1	4	0	4.8525	6.23355	13.8657	#	C
	302	1	4	0	18.8444	20.4981	11.9443	#	C
	303	1	4	0	18.8507	20.4514	13.3765	#	C
	304	1	4	0	4.8108	6.2143	12.4808	#	C
	305	1	4	0	5.63927	13.544	5.56549	#	C
	306	1	4	0	18.1444	12.054	19.2048	#	C
	307	1	4	0	18.2201	13.4451	19.1857	#	C
	308	1	4	0	5.62997	12.1398	5.54339	#	C
	309	1	4	0	18.4305	12.2427	7.28113	#	C
	310	1	4	0	6.44169	13.0964	18.199	#	C
	311	1	4	0	6.44297	11.727	18.3121	#	C
	312	1	4	0	18.5076	13.6471	7.20162	#	C
	313	1	4	0	13.3115	6.76796	18.4781	#	C
	314	1	4	0	12.4715	18.2042	6.70506	#	C
	315	1	4	0	13.8749	18.2146	6.5951	#	C
	316	1	4	0	11.9072	6.61684	18.4051	#	C
	317	1	4	0	12.2957	18.3775	18.2887	#	C
	318	1	4	0	13.5518	5.28989	6.25741	#	C
	319	1	4	0	12.1109	5.32164	6.18497	#	C
	320	1	4	0	13.6704	18.5507	18.1735	#	C
	321	1	4	0	13.5071	7.04962	7.89465	#	C
	322	1	4	0	12.3244	19.3625	20.5648	#	C
	323	1	4	0	13.7655	19.4153	20.4641	#	C
	324	1	4	0	12.102	7.10968	7.74393	#	C
	325	1	4	0	12.0231	4.92252	20.1559	#	C
	326	1	4	0	13.7969	20.3778	5.49166	#	C
	327	1	4	0	12.417	20.3599	5.55941	#	C
	328	1	4	0	13.4018	5.00071	20.1699	#	C
	329	1	5	0	4.97143	7.9011	1.40965	#	H
	330	1	5	0	18.9486	21.3225	24.4533	#	H
	331	1	5	0	19.0698	21.6832	0.960542	#	H
	332	1	5	0	4.8359	7.65763	24.8479	#	H
	333	1	5	0	20.8787	6.78252	25.0944	#	H
	334	1	5	0	8.60347	20.3358	1.04993	#	H
	335	1	5	0	8.09738	20.3542	24.5289	#	H
	336	1	5	0	20.817	7.30885	1.60327	#	H
	337	1	5	0	1.14081	4.1186	6.39295	#	H
	338	1	5	0	24.7196	17.2372	19.5671	#	H
	339	1	5	0	1.32377	17.2575	20.0572	#	H
	340	1	5	0	24.6097	4.19151	6.77549	#	H
	341	1	5	0	24.7957	21.0655	7.82082	#	H
	342	1	5	0	0.927321	8.4029	20.1912	#	H
	343	1	5	0	24.3286	8.37704	20.4288	#	H
	344	1	5	0	1.40229	20.9498	8.04968	#	H
	345	1	5	0	7.46733	1.19158	4.64984	#	H
	346	1	5	0	17.5416	24.4473	20.3504	#	H
	347	1	5	0	17.2555	0.96733	20.0346	#	H
	348	1	5	0	7.52109	24.6604	4.51478	#	H
	349	1	5	0	7.35845	24.2951	21.1153	#	H
	350	1	5	0	20.5278	1.01514	8.46295	#	H
	351	1	5	0	20.8	24.5639	8.21997	#	H
	352	1	5	0	7.26927	0.776679	21.1764	#	H
	353	1	5	0	7.49262	4.16849	24.7824	#	H
	354	1	5	0	20.5023	17.6378	0.88793	#	H
	355	1	5	0	20.2416	17.1374	24.3564	#	H
	356	1	5	0	8.01366	4.77232	1.2006	#	H
	357	1	5	0	5.03393	18.0087	1.01654	#	H
	358	1	5	0	16.7892	5.16785	24.8899	#	H
	359	1	5	0	16.928	5.50324	1.45337	#	H
	360	1	5	0	4.80339	17.6856	24.4049	#	H
	361	1	5	0	5.33157	0.872446	17.3814	#	H
	362	1	5	0	18.5918	24.7676	4.41083	#	H
	363	1	5	0	18.3862	1.29943	4.73117	#	H
	364	1	5	0	5.64261	24.3487	17.2312	#	H
	365	1	5	0	21.6033	24.7362	18.95	#	H
	366	1	5	0	5.27792	0.991431	8.34326	#	H
	367	1	5	0	5.5273	24.4586	8.35489	#	H
	368	1	5	0	21.3689	1.27625	18.749	#	H
	369	1	5	0	0.755273	4.13283	19.7759	#	H
	370	1	5	0	24.8387	17.5442	5.45126	#	H
	371	1	5	0	1.35992	17.5008	5.47275	#	H
	372	1	5	0	24.2675	4.14118	19.9656	#	H
	373	1	5	0	24.5462	8.30728	5.30144	#	H
	374	1	5	0	1.46644	21.2265	18.3504	#	H
	375	1	5	0	24.8553	21.2145	18.2169	#	H
	376	1	5	0	1.13195	8.29437	5.47338	#	H
	377	1	5	0	8.6192	20.3049	14.2017	#	H
	378	1	5	0	18.8871	8.63454	11.9382	#	H
	379	1	5	0	18.9575	8.70358	14.3978	#	H
	380	1	5	0	8.57087	20.6769	11.716	#	H
	381	1	5	0	20.6963	17.6364	11.3322	#	H
	382	1	5	0	8.28908	5.60946	14.3237	#	H
	383	1	5	0	8.24613	6.04697	11.8767	#	H
	384	1	5	0	20.7892	17.6593	13.8225	#	H
	385	1	5	0	5.06002	13.8781	21.2068	#	H
	386	1	5	0	20.8676	11.5759	5.04057	#	H
	387	1	5	0	20.9538	14.0804	5.04449	#	H
	388	1	5	0	4.73626	11.4102	21.2797	#	H
	389	1	5	0	8.38623	11.5711	7.65479	#	H
	390	1	5	0	21.5723	13.79	20.045	#	H
	391	1	5	0	21.2849	11.2513	20.1404	#	H
	392	1	5	0	8.35968	14.0686	7.50559	#	H
	393	1	5	0	5.28247	18.0447	11.4082	#	H
	394	1	5	0	19.8039	4.53411	14.4411	#	H
	395	1	5	0	19.9574	4.41588	12.0548	#	H
	396	1	5	0	5.1772	17.8237	13.812	#	H
	397	1	5	0	3.95561	6.54708	14.4549	#	H
	398	1	5	0	18.4065	21.289	11.3899	#	H
	399	1	5	0	18.2303	21.1071	13.9462	#	H
	400	1	5	0	3.88357	6.33088	11.8935	#	H
	401	1	5	0	5.04874	14.0573	4.88154	#	H
	402	1	5	0	17.222	11.6366	19.0345	#	H
	403	1	5	0	17.3049	14.0153	18.8557	#	H
	404	1	5	0	4.74684	11.5662	5.1879	#	H
	405	1	5	0	17.8111	11.8272	8.0413	#	H
	406	1	5	0	6.9914	13.5901	17.4571	#	H
	407	1	5	0	7.12671	11.2097	17.7261	#	H
	408	1	5	0	17.8046	14.2172	7.80987	#	H
	409	1	5	0	13.8118	7.66674	18.0788	#	H
	410	1	5	0	11.9588	17.4191	7.22455	#	H
	411	1	5	0	14.5399	17.3937	6.95429	#	H
	412	1	5	0	11.3859	7.21813	17.6458	#	H
	413	1	5	0	11.8682	17.9893	17.3615	#	H
	414	1	5	0	14.0873	4.64306	5.61715	#	H
	415	1	5	0	11.5512	4.57638	5.66629	#	H
	416	1	5	0	14.1271	18.2445	17.2472	#	H
	417	1	5	0	14.0551	7.88879	8.4371	#	H
	418	1	5	0	11.8441	19.8538	21.3681	#	H
	419	1	5	0	14.3652	19.7475	21.2929	#	H
	420	1	5	0	11.5056	7.85808	8.40382	#	H
	421	1	5	0	11.5724	4.40604	20.9866	#	H
	422	1	5	0	14.3337	21.2072	5.00531	#	H
	423	1	5	0	11.8848	21.2226	5.14147	#	H
	424	1	5	0	13.9844	4.51514	20.8851	#	H
425	2	7	0	13	13	13	#	C
426	2	7	0	12.134	12.5	13	#	C
427	2	7	0	13.866	12.5	13	#	C
428	2	7	0	12.134	11.5	13	#	C
429	2	7	0	13.866	11.5	13	#	C
430	2	7	0	13	11	13	#	C
431	2	6	0	13	13.62	13	#	H
432	2	6	0	11.5971	12.81	13	#	H
433	2	6	0	14.403	12.81	13	#	H
434	2	6	0	11.5971	11.19	13	#	H
435	2	6	0	14.403	11.19	13	#	H
436	2	6	0	13	10.38	13	#	H
437	3	7	0	1	13	13	#	C
438	3	7	0	0.134	12.5	13	#	C
439	3	7	0	1.866	12.5	13	#	C
440	3	7	0	0.134	11.5	13	#	C
441	3	7	0	1.866	11.5	13	#	C
442	3	7	0	1	11	13	#	C
443	3	6	0	1	13.62	13	#	H
444	3	6	0	-0.4029	12.81	13	#	H
445	3	6	0	2.403	12.81	13	#	H
446	3	6	0	-0.4029	11.19	13	#	H
447	3	6	0	2.403	11.19	13	#	H
448	3	6	0	1	10.38	13	#	H
449	4	7	0	13	1	13	#	C
450	4	7	0	12.134	0.5	13	#	C
451	4	7	0	13.866	0.5	13	#	C
452	4	7	0	12.134	-0.5	13	#	C
453	4	7	0	13.866	-0.5	13	#	C
454	4	7	0	13	-1	13	#	C
455	4	6	0	13	1.62	13	#	H
456	4	6	0	11.5971	0.81	13	#	H
457	4	6	0	14.403	0.81	13	#	H
458	4	6	0	11.5971	-0.81	13	#	H
459	4	6	0	14.403	-0.81	13	#	H
460	4	6	0	13	-1.62	13	#	H
461	5	7	0	13	13	1	#	C
462	5	7	0	12.134	12.5	1	#	C
463	5	7	0	13.866	12.5	1	#	C
464	5	7	0	12.134	11.5	1	#	C
465	5	7	0	13.866	11.5	1	#	C
466	5	7	0	13	11	1	#	C
467	5	6	0	13	13.62	1	#	H
468	5	6	0	11.5971	12.81	1	#	H
469	5	6	0	14.403	12.81	1	#	H
470	5	6	0	11.5971	11.19	1	#	H
471	5	6	0	14.403	11.19	1	#	H
472	5	6	0	13	10.38	1	#	H

Bonds

       1        1        1       33
       2        1        1       41
       3        1        1       88
       4        1        1      116
       5        1        2       34
       6        1        2       42
       7        1        2       87
       8        1        2      115
       9        1        3       35
      10        1        3       43
      11        1        3       82
      12        1        3      120
      13        1        4       36
      14        1        4       44
      15        1        4       81
      16        1        4      119
      17        1        5       37
      18        1        5       45
      19        1        5       84
      20        1        5      114
      21        1        6       38
      22        1        6       46
      23        1        6       83
      24        1        6      113
      25        1        7       39
      26        1        7       47
      27        1        7       86
      28        1        7      118
      29        1        8       40
      30        1        8       48
      31        1        8       85
      32        1        8      117
      33        1        9       33
      34        1        9       49
      35        1        9       78
      36        1        9       95
      37        1       10       34
      38        1       10       50
      39        1       10       77
      40        1       10       96
      41        1       11       39
      42        1       11       51
      43        1       11       76
      44        1       11       89
      45        1       12       40
      46        1       12       52
      47        1       12       75
      48        1       12       90
      49        1       13       35
      50        1       13       53
      51        1       13       74
      52        1       13       93
      53        1       14       36
      54        1       14       54
      55        1       14       73
      56        1       14       94
      57        1       15       37
      58        1       15       55
      59        1       15       80
      60        1       15       91
      61        1       16       38
      62        1       16       56
      63        1       16       79
      64        1       16       92
      65        1       17       33
      66        1       17       57
      67        1       17       68
      68        1       17      127
      69        1       18       34
      70        1       18       58
      71        1       18       67
      72        1       18      128
      73        1       19       37
      74        1       19       59
      75        1       19       70
      76        1       19      121
      77        1       20       38
      78        1       20       60
      79        1       20       69
      80        1       20      122
      81        1       21       39
      82        1       21       61
      83        1       21       72
      84        1       21      125
      85        1       22       40
      86        1       22       62
      87        1       22       71
      88        1       22      126
      89        1       23       35
      90        1       23       63
      91        1       23       66
      92        1       23      123
      93        1       24       36
      94        1       24       64
      95        1       24       65
      96        1       24      124
      97        1       25       39
      98        1       25       97
      99        1       25      108
     100        1       25      130
     101        1       26       40
     102        1       26       98
     103        1       26      107
     104        1       26      129
     105        1       27       35
     106        1       27       99
     107        1       27      110
     108        1       27      134
     109        1       28       36
     110        1       28      100
     111        1       28      109
     112        1       28      133
     113        1       29       33
     114        1       29      101
     115        1       29      112
     116        1       29      132
     117        1       30       34
     118        1       30      102
     119        1       30      111
     120        1       30      131
     121        1       31       37
     122        1       31      103
     123        1       31      106
     124        1       31      136
     125        1       32       38
     126        1       32      104
     127        1       32      105
     128        1       32      135
     129        2       41      137
     130        2       42      138
     131        2       43      139
     132        2       44      140
     133        2       45      141
     134        2       46      142
     135        2       47      143
     136        2       48      144
     137        2       49      145
     138        2       50      146
     139        2       51      147
     140        2       52      148
     141        2       53      149
     142        2       54      150
     143        2       55      151
     144        2       56      152
     145        2       57      153
     146        2       58      154
     147        2       59      155
     148        2       60      156
     149        2       61      157
     150        2       62      158
     151        2       63      159
     152        2       64      160
     153        2       65      140
     154        2       66      139
     155        2       67      138
     156        2       68      137
     157        2       69      142
     158        2       70      141
     159        2       71      144
     160        2       72      143
     161        2       73      160
     162        2       74      159
     163        2       75      158
     164        2       76      157
     165        2       77      154
     166        2       78      153
     167        2       79      156
     168        2       80      155
     169        2       81      150
     170        2       82      149
     171        2       83      152
     172        2       84      151
     173        2       85      148
     174        2       86      147
     175        2       87      146
     176        2       88      145
     177        2       89      161
     178        2       90      162
     179        2       91      163
     180        2       92      164
     181        2       93      165
     182        2       94      166
     183        2       95      167
     184        2       96      168
     185        2       97      169
     186        2       98      170
     187        2       99      171
     188        2      100      172
     189        2      101      173
     190        2      102      174
     191        2      103      175
     192        2      104      176
     193        2      105      164
     194        2      106      163
     195        2      107      162
     196        2      108      161
     197        2      109      166
     198        2      110      165
     199        2      111      168
     200        2      112      167
     201        2      113      176
     202        2      114      175
     203        2      115      174
     204        2      116      173
     205        2      117      170
     206        2      118      169
     207        2      119      172
     208        2      120      171
     209        2      121      177
     210        2      122      178
     211        2      123      179
     212        2      124      180
     213        2      125      181
     214        2      126      182
     215        2      127      183
     216        2      128      184
     217        2      129      182
     218        2      130      181
     219        2      131      184
     220        2      132      183
     221        2      133      180
     222        2      134      179
     223        2      135      178
     224        2      136      177
     225        3      137      185
     226        3      138      186
     227        3      139      187
     228        3      140      188
     229        3      141      189
     230        3      142      190
     231        3      143      191
     232        3      144      192
     233        3      145      193
     234        3      146      194
     235        3      147      195
     236        3      148      196
     237        3      149      197
     238        3      150      198
     239        3      151      199
     240        3      152      200
     241        3      153      201
     242        3      154      202
     243        3      155      203
     244        3      156      204
     245        3      157      205
     246        3      158      206
     247        3      159      207
     248        3      160      208
     249        3      161      209
     250        3      162      210
     251        3      163      211
     252        3      164      212
     253        3      165      213
     254        3      166      214
     255        3      167      215
     256        3      168      216
     257        3      169      217
     258        3      170      218
     259        3      171      219
     260        3      172      220
     261        3      173      221
     262        3      174      222
     263        3      175      223
     264        3      176      224
     265        3      177      225
     266        3      178      226
     267        3      179      227
     268        3      180      228
     269        3      181      229
     270        3      182      230
     271        3      183      231
     272        3      184      232