Created for WULJUJ 

        1257 atoms
        1590 bonds
        3075 angles
        3072 dihedrals
        1728 impropers

           6 atom types
           7 bond types
           9 angle types
           3 dihedral types
           1 improper types
           0.000000  53.96259929 xlo xhi
           0.000000  26.98129964 ylo yhi
           0.000000  26.98129964 zlo zhi
           0.000000   0.000000   0.000000 xy xz yz

Masses

    1    15.999400000 # O_2
    2    63.546000000 # Cu4+2
    3    12.010700000 # C_R
    4     1.007940000 # H_
    5    16.0 # O_ads
    6    0.001 # com

Bond Coeffs

    1      714.557442        1.269010  # O_2 C_R
    2      221.999373        2.029549  # O_2 Cu4+2
    3       70.296579        3.032715  # Cu4+2 Cu4+2
    4      391.669513        1.458000  # C_R C_R
    5      462.655054        1.379256  # C_R C_R
    6      357.440381        1.081418  # C_R H_
    7      1000.0	0.605  # O_ads com

Angle Coeffs

    1   cosine/periodic   154.420358              -1               3 # Cu4+2 O_2 C_R
    2   cosine/periodic   105.916453               1               4 # Cu4+2 Cu4+2 O_2
    3   cosine/periodic   222.868952               1               4 # O_2 Cu4+2 O_2
    4   cosine/periodic   204.366560              -1               3 # C_R C_R C_R
    5   cosine/periodic   222.595017              -1               3 # C_R C_R C_R
    6   cosine/periodic   275.428492              -1               3 # O_2 C_R C_R
    7   cosine/periodic   413.556852              -1               3 # O_2 C_R O_2
    8   cosine/periodic   114.578032              -1               3 # C_R C_R H_
    9              cosine/periodic      1000	1	1 # ads com ads

Dihedral Coeffs

    1        2.245703              -1               2 # Cu4+2 O_2 C_R O_2
    2        0.555556              -1               2 # C_R C_R C_R O_2
    3        1.497136              -1               2 # C_R C_R C_R C_R

Improper Coeffs

    1        2.000000        1.000000       -1.000000        0.000000               0 # C_R C_R C_R C_R

Atoms

1	1	1	-0.505347	7.7607	6.24899	25.1955	#	O
2	1	1	-0.505347	7.98088	19.5965	11.766	#	O
3	1	1	-0.505347	21.4543	6.14685	11.7935	#	O
4	1	1	-0.505347	21.4746	19.6013	25.1241	#	O
5	1	1	-0.505347	17.9141	20.1292	25.2745	#	O
6	1	1	-0.505347	17.755	6.78156	11.7223	#	O
7	1	1	-0.505347	4.36935	20.0915	11.7792	#	O
8	1	1	-0.505347	4.12922	6.62145	25.3578	#	O
9	1	1	-0.505347	17.8783	6.27194	1.11254	#	O
10	1	1	-0.505347	17.6896	19.7902	14.4994	#	O
11	1	1	-0.505347	4.50326	6.27347	14.6441	#	O
12	1	1	-0.505347	4.09437	19.5609	1.13486	#	O
13	1	1	-0.505347	7.66342	19.9828	1.08951	#	O
14	1	1	-0.505347	8.10145	6.90777	14.6538	#	O
15	1	1	-0.505347	21.3847	20.2027	14.5946	#	O
16	1	1	-0.505347	21.3236	6.64136	1.05121	#	O
17	1	1	-0.505347	24.8039	8.20364	6.25668	#	O
18	1	1	-0.505347	24.873	21.8446	19.5685	#	O
19	1	1	-0.505347	11.3073	8.20758	19.9048	#	O
20	1	1	-0.505347	11.3434	21.6287	6.00522	#	O
21	1	1	-0.505347	24.7092	18.339	19.9158	#	O
22	1	1	-0.505347	24.9954	4.54614	6.72083	#	O
23	1	1	-0.505347	11.2674	18.0603	6.56123	#	O
24	1	1	-0.505347	11.4797	4.59226	20.2049	#	O
25	1	1	-0.505347	0.625991	18.1168	6.32407	#	O
26	1	1	-0.505347	0.933358	4.59973	19.638	#	O
27	1	1	-0.505347	14.2719	18.0821	19.726	#	O
28	1	1	-0.505347	14.2577	4.64988	6.10544	#	O
29	1	1	-0.505347	0.876813	8.01585	19.9948	#	O
30	1	1	-0.505347	0.674488	21.8981	6.84921	#	O
31	1	1	-0.505347	14.1599	8.34672	6.68216	#	O
32	1	1	-0.505347	14.1991	21.79	20.4162	#	O
33	1	1	-0.505347	6.08012	25.1993	8.1379	#	O
34	1	1	-0.505347	5.95668	11.594	21.7584	#	O
35	1	1	-0.505347	19.265	25.2633	21.7273	#	O
36	1	1	-0.505347	19.096	11.9368	8.35222	#	O
37	1	1	-0.505347	19.723	25.3247	18.0912	#	O
38	1	1	-0.505347	19.7058	11.6208	4.75969	#	O
39	1	1	-0.505347	6.27548	25.1421	4.6168	#	O
40	1	1	-0.505347	6.33961	11.814	18.1776	#	O
41	1	1	-0.505347	5.9918	1.01107	18.1135	#	O
42	1	1	-0.505347	5.71558	14.5487	4.70387	#	O
43	1	1	-0.505347	19.379	1.288	4.63511	#	O
44	1	1	-0.505347	19.3721	14.6573	17.9938	#	O
45	1	1	-0.505347	19.6922	1.32103	8.13166	#	O
46	1	1	-0.505347	19.8081	14.5904	21.5212	#	O
47	1	1	-0.505347	6.30273	1.04942	21.7644	#	O
48	1	1	-0.505347	6.2218	14.5708	8.352	#	O
49	1	1	-0.505347	5.67576	8.1724	1.10634	#	O
50	1	1	-0.505347	5.99959	21.7048	14.6111	#	O
51	1	1	-0.505347	19.1973	8.28031	14.3559	#	O
52	1	1	-0.505347	19.571	21.518	1.21842	#	O
53	1	1	-0.505347	20.0599	17.989	1.07575	#	O
54	1	1	-0.505347	19.7743	4.57902	14.4289	#	O
55	1	1	-0.505347	6.41953	18.1399	14.6264	#	O
56	1	1	-0.505347	6.31128	4.58807	1.12176	#	O
57	1	1	-0.505347	5.60606	17.9386	25.2211	#	O
58	1	1	-0.505347	6.12201	4.72334	11.7532	#	O
59	1	1	-0.505347	19.2875	18.299	11.6447	#	O
60	1	1	-0.505347	19.4598	4.67334	25.0857	#	O
61	1	1	-0.505347	19.7288	8.15611	25.0084	#	O
62	1	1	-0.505347	19.7553	21.7988	11.7139	#	O
63	1	1	-0.505347	6.43299	8.30621	11.7479	#	O
64	1	1	-0.505347	6.04414	21.4515	25.0529	#	O
65	1	1	-0.505347	7.79306	25.0776	20.2353	#	O
66	1	1	-0.505347	7.86163	11.7358	6.65313	#	O
67	1	1	-0.505347	21.2366	25.2435	6.47705	#	O
68	1	1	-0.505347	21.3709	11.7089	19.9983	#	O
69	1	1	-0.505347	17.8403	25.2196	6.12304	#	O
70	1	1	-0.505347	17.7666	11.7101	19.5609	#	O
71	1	1	-0.505347	4.25476	25.1631	19.7322	#	O
72	1	1	-0.505347	4.23467	11.6653	6.31641	#	O
73	1	1	-0.505347	17.6287	1.04617	20.3309	#	O
74	1	1	-0.505347	17.8593	14.7963	6.5802	#	O
75	1	1	-0.505347	4.55511	1.24076	6.51918	#	O
76	1	1	-0.505347	4.11688	14.4879	20.2538	#	O
77	1	1	-0.505347	7.98454	0.990654	6.04641	#	O
78	1	1	-0.505347	7.64898	14.8548	20.0074	#	O
79	1	1	-0.505347	21.2745	1.18433	19.6932	#	O
80	1	1	-0.505347	21.5011	14.404	6.19101	#	O
81	1	1	-0.505347	24.8391	6.16581	17.9814	#	O
82	1	1	-0.505347	24.8297	19.6366	4.67425	#	O
83	1	1	-0.505347	11.5127	6.06442	4.46668	#	O
84	1	1	-0.505347	11.4748	19.7062	18.2442	#	O
85	1	1	-0.505347	24.6628	20.1596	8.11333	#	O
86	1	1	-0.505347	24.9271	6.68412	21.6155	#	O
87	1	1	-0.505347	11.4359	20.1178	21.852	#	O
88	1	1	-0.505347	11.3942	6.62855	8.1028	#	O
89	1	1	-0.505347	0.930957	6.02765	8.32905	#	O
90	1	1	-0.505347	0.751581	19.7665	21.6795	#	O
91	1	1	-0.505347	14.3108	6.2254	21.7346	#	O
92	1	1	-0.505347	14.1322	19.661	8.15938	#	O
93	1	1	-0.505347	0.780692	20.1556	18.1183	#	O
94	1	1	-0.505347	0.624452	6.58764	4.67643	#	O
95	1	1	-0.505347	14.3158	20.0483	4.60655	#	O
96	1	1	-0.505347	14.084	6.74091	18.1033	#	O
97	1	1	-0.505347	17.9678	19.9683	1.20121	#	O
98	1	1	-0.505347	17.7921	6.58608	14.6009	#	O
99	1	1	-0.505347	4.40598	20.1195	14.6201	#	O
100	1	1	-0.505347	4.20804	6.55605	1.27073	#	O
101	1	1	-0.505347	7.82113	6.22707	1.16602	#	O
102	1	1	-0.505347	8.03036	19.7074	14.6519	#	O
103	1	1	-0.505347	21.1982	6.27502	14.6391	#	O
104	1	1	-0.505347	21.6376	19.5037	1.04606	#	O
105	1	1	-0.505347	7.6263	19.9455	25.1763	#	O
106	1	1	-0.505347	8.05	6.77294	11.7778	#	O
107	1	1	-0.505347	21.3222	20.2607	11.6754	#	O
108	1	1	-0.505347	21.4291	6.71579	25.1319	#	O
109	1	1	-0.505347	17.7619	6.13822	25.2882	#	O
110	1	1	-0.505347	17.6835	19.8566	11.6668	#	O
111	1	1	-0.505347	4.52344	6.24066	11.723	#	O
112	1	1	-0.505347	3.95735	19.4535	25.3884	#	O
113	1	1	-0.505347	0.71265	18.1341	20.1173	#	O
114	1	1	-0.505347	0.914638	4.4794	6.69693	#	O
115	1	1	-0.505347	14.124	18.0176	6.64723	#	O
116	1	1	-0.505347	14.256	4.64885	20.0895	#	O
117	1	1	-0.505347	0.697274	8.06523	6.34756	#	O
118	1	1	-0.505347	0.653402	21.8231	19.6126	#	O
119	1	1	-0.505347	14.226	8.35377	19.7057	#	O
120	1	1	-0.505347	14.2181	21.7159	6.14033	#	O
121	1	1	-0.505347	24.7965	8.22219	19.9957	#	O
122	1	1	-0.505347	24.8622	21.7873	6.58	#	O
123	1	1	-0.505347	11.3116	8.09801	6.43722	#	O
124	1	1	-0.505347	11.3548	21.694	20.2695	#	O
125	1	1	-0.505347	25.0515	18.024	6.15368	#	O
126	1	1	-0.505347	24.8384	4.66739	19.5965	#	O
127	1	1	-0.505347	11.4646	18.0785	19.7947	#	O
128	1	1	-0.505347	11.3713	4.60199	6.09815	#	O
129	1	1	-0.505347	19.5908	1.25532	18.2438	#	O
130	1	1	-0.505347	19.881	14.508	4.59435	#	O
131	1	1	-0.505347	6.44479	0.912509	4.46658	#	O
132	1	1	-0.505347	6.21628	14.7174	18.2948	#	O
133	1	1	-0.505347	6.13436	1.11213	8.10027	#	O
134	1	1	-0.505347	5.60514	14.4582	21.9488	#	O
135	1	1	-0.505347	19.2912	1.15762	21.8217	#	O
136	1	1	-0.505347	19.4357	14.8195	8.13336	#	O
137	1	1	-0.505347	19.8416	25.403	8.19454	#	O
138	1	1	-0.505347	19.7619	11.71	21.4958	#	O
139	1	1	-0.505347	6.14162	25.1161	21.7768	#	O
140	1	1	-0.505347	6.30618	11.6785	8.19795	#	O
141	1	1	-0.505347	5.81587	25.194	18.1451	#	O
142	1	1	-0.505347	5.75063	11.7096	4.68421	#	O
143	1	1	-0.505347	19.2969	25.3392	4.45822	#	O
144	1	1	-0.505347	19.3278	11.7048	17.9482	#	O
145	1	1	-0.505347	19.877	17.9993	25.1042	#	O
146	1	1	-0.505347	19.7452	4.7271	11.5731	#	O
147	1	1	-0.505347	6.38086	18.1807	11.693	#	O
148	1	1	-0.505347	6.27785	4.63747	25.2952	#	O
149	1	1	-0.505347	5.73163	8.17984	25.265	#	O
150	1	1	-0.505347	5.94001	21.741	11.7366	#	O
151	1	1	-0.505347	19.4342	8.17279	11.5159	#	O
152	1	1	-0.505347	19.5155	21.707	25.2681	#	O
153	1	1	-0.505347	19.9134	8.33489	0.901972	#	O
154	1	1	-0.505347	19.86	21.8359	14.5579	#	O
155	1	1	-0.505347	6.51218	8.40293	14.6026	#	O
156	1	1	-0.505347	6.16252	21.5716	0.975351	#	O
157	1	1	-0.505347	5.6594	17.9371	1.1308	#	O
158	1	1	-0.505347	6.10734	4.77404	14.6344	#	O
159	1	1	-0.505347	19.2362	18.1311	14.4676	#	O
160	1	1	-0.505347	19.3305	4.52013	0.938522	#	O
161	1	1	-0.505347	17.6845	1.10835	6.03665	#	O
162	1	1	-0.505347	17.7445	14.6358	19.5463	#	O
163	1	1	-0.505347	4.34664	1.11886	19.6892	#	O
164	1	1	-0.505347	4.15609	14.5774	6.35168	#	O
165	1	1	-0.505347	7.92064	0.998139	20.2278	#	O
166	1	1	-0.505347	7.80729	14.577	6.74432	#	O
167	1	1	-0.505347	21.3283	1.13716	6.67127	#	O
168	1	1	-0.505347	21.4205	14.5797	19.9859	#	O
169	1	1	-0.505347	7.97056	25.1948	6.05858	#	O
170	1	1	-0.505347	7.93099	11.9363	19.7384	#	O
171	1	1	-0.505347	21.2149	25.2695	19.6943	#	O
172	1	1	-0.505347	21.2091	11.5193	6.40411	#	O
173	1	1	-0.505347	17.656	25.1967	20.1561	#	O
174	1	1	-0.505347	17.6354	11.924	6.68637	#	O
175	1	1	-0.505347	4.35851	25.3693	6.68672	#	O
176	1	1	-0.505347	4.33362	11.684	20.1969	#	O
177	1	1	-0.505347	0.83652	20.2183	8.30269	#	O
178	1	1	-0.505347	0.811585	6.55182	21.6662	#	O
179	1	1	-0.505347	14.2999	20.0488	21.7544	#	O
180	1	1	-0.505347	14.2911	6.63283	8.11862	#	O
181	1	1	-0.505347	0.748994	6.02315	17.962	#	O
182	1	1	-0.505347	0.793751	19.7993	4.9275	#	O
183	1	1	-0.505347	14.368	6.30577	4.63655	#	O
184	1	1	-0.505347	14.426	19.9013	18.3403	#	O
185	1	1	-0.505347	25.0161	20.3793	17.9161	#	O
186	1	1	-0.505347	24.8466	6.65699	4.65932	#	O
187	1	1	-0.505347	11.3902	20.1097	4.41504	#	O
188	1	1	-0.505347	11.2686	6.68344	18.286	#	O
189	1	1	-0.505347	24.9098	6.15837	8.25591	#	O
190	1	1	-0.505347	24.688	19.8294	21.5484	#	O
191	1	1	-0.505347	11.4301	6.11417	21.8116	#	O
192	1	1	-0.505347	11.2747	19.6389	8.07673	#	O
193	1	2	0.801561	6.80344	7.22469	-0.294871	#	Cu
194	1	2	0.801562	7.04981	20.7415	13.1959	#	Cu
195	1	2	0.801562	20.3953	7.24171	13.0828	#	Cu
196	1	2	0.801561	20.6233	20.6281	-0.30898	#	Cu
197	1	2	0.801561	18.9271	18.9715	26.6216	#	Cu
198	1	2	0.801561	18.707	5.61598	13.0885	#	Cu
199	1	2	0.801561	5.36531	19.0735	13.1768	#	Cu
200	1	2	0.801561	5.17391	5.55903	-0.221478	#	Cu
201	1	2	0.801561	18.7834	7.30115	26.5466	#	Cu
202	1	2	0.801562	18.6957	20.8717	13.0922	#	Cu
203	1	2	0.801561	5.43811	7.36307	13.1741	#	Cu
204	1	2	0.801561	5.01884	20.5555	26.6054	#	Cu
205	1	2	0.801561	6.70641	18.9214	-0.325797	#	Cu
206	1	2	0.801561	7.16179	5.70516	13.1989	#	Cu
207	1	2	0.801561	20.3841	19.1469	13.088	#	Cu
208	1	2	0.801561	20.4687	5.6006	26.5531	#	Cu
209	1	2	0.801561	-0.60224	7.03578	7.46518	#	Cu
210	1	2	0.801562	53.2089	20.7672	20.7423	#	Cu
211	1	2	0.801562	12.8122	7.26333	20.8334	#	Cu
212	1	2	0.801562	12.7352	20.6837	7.17311	#	Cu
213	1	2	0.801561	53.2489	19.1561	19.0658	#	Cu
214	1	2	0.801561	53.3129	5.40423	5.74102	#	Cu
215	1	2	0.801561	12.7718	19.0098	5.4822	#	Cu
216	1	2	0.801561	12.7311	5.637	19.1402	#	Cu
217	1	2	0.801561	53.2628	19.1912	7.4405	#	Cu
218	1	2	0.801561	-0.542009	5.49281	20.6979	#	Cu
219	1	2	0.801562	12.8557	19.018	20.8451	#	Cu
220	1	2	0.801561	12.8195	5.62875	7.17566	#	Cu
221	1	2	0.801561	-0.599458	7.10886	18.9576	#	Cu
222	1	2	0.801561	53.2418	20.8136	5.75847	#	Cu
223	1	2	0.801561	12.8	7.26725	5.4646	#	Cu
224	1	2	0.801561	12.8402	20.8124	19.2888	#	Cu
225	1	2	0.801562	7.10791	26.5934	7.15256	#	Cu
226	1	2	0.801562	6.86298	13.1993	20.9237	#	Cu
227	1	2	0.801562	20.2998	-0.258083	20.7961	#	Cu
228	1	2	0.801562	20.3497	13.1616	7.35422	#	Cu
229	1	2	0.801561	18.5958	-0.30417	19.1625	#	Cu
230	1	2	0.801561	18.7091	13.1995	5.62091	#	Cu
231	1	2	0.801561	5.3496	26.6494	5.55126	#	Cu
232	1	2	0.801561	5.19852	13.1696	19.184	#	Cu
233	1	2	0.801562	6.91832	26.5536	19.1211	#	Cu
234	1	2	0.801561	6.84005	13.153	5.67617	#	Cu
235	1	2	0.801561	20.4126	-0.236605	5.50997	#	Cu
236	1	2	0.801562	20.4379	13.1488	18.92	#	Cu
237	1	2	0.801561	18.6996	-0.209492	7.14184	#	Cu
238	1	2	0.801561	18.7344	13.149	20.5821	#	Cu
239	1	2	0.801561	5.18473	26.5957	20.7769	#	Cu
240	1	2	0.801561	5.17295	13.0981	7.35391	#	Cu
241	1	3	-0.023809	7.84383	4.59722	23.4564	#	C
242	1	3	0.581954	7.22713	5.23233	24.6733	#	C
243	1	3	-0.02381	8.19276	17.8106	10.2599	#	C
244	1	3	0.581954	7.53094	18.5056	11.3766	#	C
245	1	3	-0.02381	17.6408	21.9599	23.7423	#	C
246	1	3	0.581955	18.3966	21.2512	24.8275	#	C
247	1	3	-0.02381	17.5342	8.49183	10.1121	#	C
248	1	3	0.581954	18.256	7.85642	11.2241	#	C
249	1	3	-0.023809	4.03427	8.28395	23.5808	#	C
250	1	3	0.581954	4.69571	7.62368	24.7437	#	C
251	1	3	-0.02381	17.6108	4.44962	2.60536	#	C
252	1	3	0.581954	18.2869	5.10198	1.49318	#	C
253	1	3	-0.02381	17.7092	18.1272	16.2359	#	C
254	1	3	0.581955	18.2385	18.7244	15.0174	#	C
255	1	3	-0.023809	4.28725	4.35784	16.1274	#	C
256	1	3	0.581954	4.96478	5.15464	15.044	#	C
257	1	3	-0.023809	7.96789	21.8048	2.64072	#	C
258	1	3	0.581954	7.2197	21.086	1.51003	#	C
259	1	3	-0.023809	8.18925	8.59454	16.2868	#	C
260	1	3	0.581954	7.61458	7.95683	15.0922	#	C
261	1	3	-0.023809	23.1369	8.29256	4.52744	#	C
262	1	3	0.581954	24.3696	7.70391	5.15488	#	C
263	1	3	-0.02381	9.73004	8.48726	18.1324	#	C
264	1	3	0.581954	10.7901	7.72005	18.8807	#	C
265	1	3	-0.02381	23.217	17.9747	21.7448	#	C
266	1	3	0.581955	24.274	18.7397	21.0427	#	C
267	1	3	-0.023809	23.3527	4.36801	8.47364	#	C
268	1	3	0.581954	24.5167	5.00683	7.80994	#	C
269	1	3	-0.02381	9.65189	17.9619	8.28749	#	C
270	1	3	0.581954	10.7188	18.6305	7.56293	#	C
271	1	3	-0.02381	2.18907	17.8783	4.51887	#	C
272	1	3	0.581954	1.16007	18.6566	5.32081	#	C
273	1	3	-0.02381	15.9695	18.0587	17.9366	#	C
274	1	3	0.581955	14.8059	18.693	18.6718	#	C
275	1	3	-0.023809	15.9365	4.52388	4.3741	#	C
276	1	3	0.581954	14.781	5.18302	5.07186	#	C
277	1	3	-0.023809	2.44722	8.28508	21.7615	#	C
278	1	3	0.581954	1.32446	7.58969	21.1057	#	C
279	1	3	-0.023809	15.8682	8.39088	8.33401	#	C
280	1	3	0.581954	14.6744	7.82012	7.75095	#	C
281	1	3	-0.023809	4.19019	23.692	8.44801	#	C
282	1	3	0.581954	4.92374	24.7937	7.69725	#	C
283	1	3	-0.02381	4.04329	10.1138	21.9432	#	C
284	1	3	0.581954	4.76652	11.2387	21.2818	#	C
285	1	3	-0.02381	21.4912	23.7078	17.9274	#	C
286	1	3	0.581955	20.7282	24.7947	18.6516	#	C
287	1	3	-0.02381	21.3664	9.89962	4.64238	#	C
288	1	3	0.581954	20.7378	11.0706	5.30484	#	C
289	1	3	-0.023809	8.01656	23.5465	4.36837	#	C
290	1	3	0.581954	7.43302	24.7311	4.98286	#	C
291	1	3	-0.02381	4.30268	2.68774	17.9236	#	C
292	1	3	0.581954	4.92081	1.60845	18.6201	#	C
293	1	3	-0.023809	3.97633	16.2052	4.56733	#	C
294	1	3	0.581954	4.64277	15.0397	5.23904	#	C
295	1	3	-0.02381	21.6176	2.7243	8.43649	#	C
296	1	3	0.581954	20.8585	1.68911	7.71954	#	C
297	1	3	-0.02381	21.6066	16.1273	21.7664	#	C
298	1	3	0.581955	20.9082	15.092	21.0592	#	C
299	1	3	-0.023809	8.04448	16.1616	8.44683	#	C
300	1	3	0.581954	7.32167	15.0985	7.77361	#	C
301	1	3	-0.023809	4.00448	8.32921	2.88619	#	C
302	1	3	0.581954	4.70133	7.65664	1.70024	#	C
303	1	3	-0.023809	4.24425	21.807	16.2871	#	C
304	1	3	0.581954	4.93985	21.1464	15.1686	#	C
305	1	3	-0.02381	21.9043	17.6453	2.56416	#	C
306	1	3	0.581955	21.2093	18.3884	1.45205	#	C
307	1	3	-0.023809	21.3629	4.5256	16.2188	#	C
308	1	3	0.581954	20.7612	5.17322	15.0286	#	C
309	1	3	-0.023809	8.07904	4.40323	2.70454	#	C
310	1	3	0.581954	7.42269	5.06149	1.55666	#	C
311	1	3	-0.023809	3.72095	17.7124	23.8242	#	C
312	1	3	0.581955	4.46985	18.4025	24.8646	#	C
313	1	3	-0.023809	4.30733	4.41833	10.1774	#	C
314	1	3	0.581954	5.02092	5.13697	11.3188	#	C
315	1	3	-0.023809	21.5273	8.41744	23.4775	#	C
316	1	3	0.581954	20.891	7.77059	24.6205	#	C
317	1	3	-0.02381	21.5435	22.0856	10.1624	#	C
318	1	3	0.581954	20.8529	21.3524	11.2658	#	C
319	1	3	-0.023809	8.10704	8.38228	9.96921	#	C
320	1	3	0.581954	7.46664	7.75151	11.1868	#	C
321	1	3	-0.023809	7.75273	23.2773	21.7865	#	C
322	1	3	0.581954	7.28199	24.6015	21.3235	#	C
323	1	3	-0.023809	8.06242	10.1974	8.31316	#	C
324	1	3	0.581954	7.40961	11.3128	7.71415	#	C
325	1	3	-0.023809	17.6837	23.5628	4.45179	#	C
326	1	3	0.581955	18.284	24.825	5.00315	#	C
327	1	3	-0.02381	17.5288	10.2234	17.728	#	C
328	1	3	0.581954	18.1951	11.321	18.4033	#	C
329	1	3	-0.023809	3.93238	10.1515	4.46399	#	C
330	1	3	0.581954	4.6641	11.248	5.19631	#	C
331	1	3	-0.02381	17.4758	2.62998	22.0856	#	C
332	1	3	0.581955	18.117	1.55056	21.408	#	C
333	1	3	-0.023809	17.6089	16.3102	8.36611	#	C
334	1	3	0.581954	18.3233	15.2348	7.67643	#	C
335	1	3	-0.023809	4.30878	2.6469	8.4661	#	C
336	1	3	0.581954	5.01888	1.58035	7.6829	#	C
337	1	3	-0.023809	8.1268	2.60137	4.33109	#	C
338	1	3	0.581954	7.49975	1.43653	4.96	#	C
339	1	3	-0.023809	7.8985	16.3973	18.2003	#	C
340	1	3	0.581954	7.15793	15.3285	18.8992	#	C
341	1	3	-0.023809	23.1205	4.49839	17.8938	#	C
342	1	3	0.581955	24.2902	5.20372	18.5513	#	C
343	1	3	-0.023809	9.82708	4.42165	4.35691	#	C
344	1	3	0.581954	11.0491	4.99693	4.94506	#	C
345	1	3	-0.023809	23.2258	22.0195	8.31443	#	C
346	1	3	0.581954	24.2954	21.2923	7.64385	#	C
347	1	3	-0.02381	9.65	21.7313	21.9321	#	C
348	1	3	0.581954	10.8881	21.1676	21.3435	#	C
349	1	3	-0.023809	9.73213	8.38969	8.24077	#	C
350	1	3	0.581954	10.7823	7.58179	7.48416	#	C
351	1	3	-0.023809	2.52976	4.27626	8.53851	#	C
352	1	3	0.581954	1.37041	4.91524	7.82997	#	C
353	1	3	-0.023809	15.91	4.51237	21.851	#	C
354	1	3	0.581954	14.8121	5.2033	21.16	#	C
355	1	3	-0.02381	2.37082	21.8785	17.8995	#	C
356	1	3	0.581955	1.21913	21.2615	18.5863	#	C
357	1	3	-0.023809	2.23789	8.36501	4.5275	#	C
358	1	3	0.581954	1.16161	7.61958	5.21399	#	C
359	1	3	-0.023809	15.9575	21.8188	4.46192	#	C
360	1	3	0.581954	14.8292	21.1698	5.1199	#	C
361	1	3	-0.02381	17.8516	21.7213	2.8845	#	C
362	1	3	0.581954	18.4722	21.039	1.69482	#	C
363	1	3	-0.023809	17.5864	8.40486	16.0968	#	C
364	1	3	0.581954	18.2379	7.69416	14.9891	#	C
365	1	3	-0.023809	8.08291	17.9759	16.3581	#	C
366	1	3	0.581954	7.52072	18.5944	15.0988	#	C
367	1	3	-0.023809	7.73027	21.508	23.4121	#	C
368	1	3	0.581954	7.09051	20.9222	24.5974	#	C
369	1	3	-0.023809	17.4917	4.38088	23.7307	#	C
370	1	3	0.581954	18.261	5.06746	24.8061	#	C
371	1	3	-0.02381	17.5674	18.0908	10.016	#	C
372	1	3	0.581954	18.2697	18.8414	11.1045	#	C
373	1	3	-0.02381	2.1927	17.8928	21.9613	#	C
374	1	3	0.581954	1.23508	18.6598	21.1683	#	C
375	1	3	-0.023809	15.8288	17.9749	8.341	#	C
376	1	3	0.581954	14.6327	18.5665	7.71163	#	C
377	1	3	-0.023809	15.7948	8.4989	17.8008	#	C
378	1	3	0.581954	14.5948	7.87285	18.5247	#	C
379	1	3	-0.023809	23.1693	8.36655	21.682	#	C
380	1	3	0.581954	24.3489	7.69871	21.0449	#	C
381	1	3	-0.023809	23.4973	17.7324	4.37012	#	C
382	1	3	0.581954	24.529	18.4754	5.07251	#	C
383	1	3	-0.02381	9.74113	17.991	18.1231	#	C
384	1	3	0.581954	10.9263	18.6413	18.7386	#	C
385	1	3	-0.02381	21.3022	2.88914	18.0588	#	C
386	1	3	0.581954	20.7316	1.66343	18.6327	#	C
387	1	3	-0.023809	21.7397	16.0035	4.43013	#	C
388	1	3	0.581954	21.0207	14.9286	5.11538	#	C
389	1	3	-0.023809	3.8143	16.0364	22.0285	#	C
390	1	3	0.581954	4.51101	14.8833	21.4236	#	C
391	1	3	-0.023809	21.5253	23.7426	8.31045	#	C
392	1	3	0.581954	20.8766	24.8828	7.66944	#	C
393	1	3	-0.02381	21.5287	10.1441	21.8015	#	C
394	1	3	0.581954	20.8301	11.1853	21.0325	#	C
395	1	3	-0.023809	4.16538	23.5375	18.0425	#	C
396	1	3	0.581954	4.7869	24.6282	18.7045	#	C
397	1	3	-0.02381	21.4594	17.9351	23.379	#	C
398	1	3	0.581955	20.9433	18.476	24.6169	#	C
399	1	3	-0.02381	21.7438	4.29592	10.2951	#	C
400	1	3	0.581954	20.9561	5.07428	11.2879	#	C
401	1	3	-0.02381	4.24534	21.858	10.071	#	C
402	1	3	0.581954	4.85586	21.2032	11.2925	#	C
403	1	3	-0.02381	21.4683	8.29395	2.78138	#	C
404	1	3	0.581954	20.9211	7.74723	1.51818	#	C
405	1	3	-0.02381	21.5321	22.0399	16.2036	#	C
406	1	3	0.581954	20.9374	21.3167	15.0301	#	C
407	1	3	-0.02381	3.90349	17.805	2.76351	#	C
408	1	3	0.581954	4.52588	18.4297	1.56849	#	C
409	1	3	-0.02381	17.5178	2.69032	4.27125	#	C
410	1	3	0.581954	18.1678	1.55444	4.95493	#	C
411	1	3	-0.02381	17.5478	16.2514	17.7952	#	C
412	1	3	0.581954	18.2437	15.0982	18.4529	#	C
413	1	3	-0.02381	7.96036	2.83065	21.7781	#	C
414	1	3	0.581954	7.39839	1.50853	21.2858	#	C
415	1	3	-0.02381	8.26511	10.4003	17.9091	#	C
416	1	3	0.581954	7.44116	11.3974	18.6592	#	C
417	1	3	-0.02381	17.6295	23.5187	21.8811	#	C
418	1	3	0.581955	18.2207	24.6907	21.192	#	C
419	1	3	-0.02381	17.5062	10.2183	8.39502	#	C
420	1	3	0.581954	18.078	11.4396	7.82205	#	C
421	1	3	-0.02381	2.3777	21.9999	8.48408	#	C
422	1	3	0.581954	1.17007	21.3669	7.88039	#	C
423	1	3	-0.02381	15.9197	21.838	22.0187	#	C
424	1	3	0.581954	14.7591	21.2318	21.3794	#	C
425	1	3	-0.02381	2.4772	4.33616	17.8674	#	C
426	1	3	0.581954	1.27263	4.97106	18.4737	#	C
427	1	3	-0.02381	23.3374	22.1576	17.7689	#	C
428	1	3	0.581955	24.5326	21.4946	18.3984	#	C
429	1	3	-0.02381	9.81388	21.9173	4.24207	#	C
430	1	3	0.581954	10.8989	21.1883	4.8953	#	C
431	1	3	-0.02381	9.65049	4.57884	21.8003	#	C
432	1	3	0.581954	10.906	5.11244	21.262	#	C
433	1	3	-0.092399	8.97805	5.21376	22.877	#	C
434	1	3	-0.092398	9.23839	18.4379	9.50385	#	C
435	1	3	-0.092399	16.4878	21.3479	23.1982	#	C
436	1	3	-0.092399	16.4364	7.83616	9.49884	#	C
437	1	3	-0.092398	3.03106	21.3408	9.54239	#	C
438	1	3	-0.092399	16.5216	5.07866	3.18962	#	C
439	1	3	-0.092399	16.6135	18.7254	16.9164	#	C
440	1	3	-0.092398	2.83302	18.4114	3.37421	#	C
441	1	3	-0.092398	9.18926	21.3343	3.07225	#	C
442	1	3	-0.092399	9.1615	7.93412	17.0168	#	C
443	1	3	-0.092399	22.5766	9.43363	5.1029	#	C
444	1	3	-0.092399	22.7631	23.2659	18.3516	#	C
445	1	3	-0.092398	9.18208	9.67651	18.6623	#	C
446	1	3	-0.092399	22.7809	16.7248	21.2207	#	C
447	1	3	-0.092399	22.7815	3.20995	7.89332	#	C
448	1	3	-0.092398	9.0823	3.40908	21.181	#	C
449	1	3	-0.092399	2.70659	16.6447	5.0569	#	C
450	1	3	-0.092398	3.06233	3.16309	18.3767	#	C
451	1	3	-0.092398	2.95418	9.49419	21.2663	#	C
452	1	3	-0.092399	3.00086	23.1623	7.87865	#	C
453	1	3	-0.092399	4.82719	22.9823	9.49593	#	C
454	1	3	-0.092399	18.2432	23.0018	23.0286	#	C
455	1	3	-0.092398	18.0605	9.66673	9.56738	#	C
456	1	3	-0.092399	20.8724	23.0584	16.8589	#	C
457	1	3	-0.092398	20.8133	9.30694	3.52181	#	C
458	1	3	-0.092399	7.44588	23.0112	3.18187	#	C
459	1	3	-0.092399	4.92916	3.29719	16.7891	#	C
460	1	3	-0.092398	18.0613	3.2268	3.10961	#	C
461	1	3	-0.092398	21.1226	3.18783	9.67197	#	C
462	1	3	-0.092399	7.3721	3.35357	22.9492	#	C
463	1	3	-0.092399	4.56369	9.51044	3.40945	#	C
464	1	3	-0.092399	18.0087	9.68676	16.5155	#	C
465	1	3	-0.092399	21.2511	16.5617	3.19334	#	C
466	1	3	-0.092399	7.34678	16.9917	17.072	#	C
467	1	3	-0.092399	7.48076	3.2415	3.28043	#	C
468	1	3	-0.092399	4.16323	16.4611	23.355	#	C
469	1	3	-0.092399	4.96514	3.33957	9.50702	#	C
470	1	3	-0.092399	18.2407	17.0237	9.37916	#	C
471	1	3	-0.092399	21.037	9.63771	22.9615	#	C
472	1	3	-0.092399	7.55259	9.58914	9.50165	#	C
473	1	3	-0.092399	8.93966	22.7703	21.278	#	C
474	1	3	-0.092399	9.10215	9.53049	7.66405	#	C
475	1	3	-0.092399	16.4346	23.0532	4.93605	#	C
476	1	3	-0.092399	16.3175	9.71089	18.2591	#	C
477	1	3	-0.092399	2.74778	9.59307	4.99727	#	C
478	1	3	-0.092399	16.344	3.23085	21.421	#	C
479	1	3	-0.092399	16.3455	16.7084	7.88666	#	C
480	1	3	-0.092399	3.02586	3.0457	8.09013	#	C
481	1	3	-0.092399	9.34869	3.16964	4.85245	#	C
482	1	3	-0.092399	9.08227	16.9466	18.7816	#	C
483	1	3	-0.092399	22.6003	4.98695	16.667	#	C
484	1	3	-0.092399	23.0795	18.1873	3.09958	#	C
485	1	3	-0.092399	9.20932	5.00886	3.2721	#	C
486	1	3	-0.092399	22.6887	21.4977	9.56288	#	C
487	1	3	-0.092399	22.5857	7.76371	22.752	#	C
488	1	3	-0.092399	9.21698	7.82269	9.37852	#	C
489	1	3	-0.092399	3.0431	4.87497	9.71213	#	C
490	1	3	-0.092399	2.68205	18.389	23.178	#	C
491	1	3	-0.092399	3.01335	21.3147	16.7886	#	C
492	1	3	-0.092399	2.88356	7.77017	3.46941	#	C
493	1	3	-0.092399	16.6648	21.1628	3.47613	#	C
494	1	3	-0.092399	16.4668	7.82204	16.7785	#	C
495	1	3	-0.092399	9.31567	18.4454	16.8989	#	C
496	1	3	-0.092399	9.0611	21.158	23.0386	#	C
497	1	3	-0.092399	16.4868	5.04518	23.0048	#	C
498	1	3	-0.092399	16.4243	18.6126	9.43151	#	C
499	1	3	-0.092399	2.78907	16.7168	21.3715	#	C
500	1	3	-0.092399	2.96237	23.0215	18.4752	#	C
501	1	3	-0.092399	22.6145	9.5037	21.1515	#	C
502	1	3	-0.092399	22.6025	23.1196	7.68471	#	C
503	1	3	-0.092399	22.7774	16.6687	5.01903	#	C
504	1	3	-0.092399	22.5103	3.41119	18.5339	#	C
505	1	3	-0.092399	20.6844	3.48302	16.9448	#	C
506	1	3	-0.092399	17.9598	3.14954	23.248	#	C
507	1	3	-0.092399	20.913	23.1787	9.46316	#	C
508	1	3	-0.092399	7.12223	22.5904	22.877	#	C
509	1	3	-0.092399	4.87315	22.8635	17.0284	#	C
510	1	3	-0.092399	18.3661	22.898	3.41352	#	C
511	1	3	-0.092399	21.1393	16.6277	22.9958	#	C
512	1	3	-0.092399	7.62141	16.6465	9.67644	#	C
513	1	3	-0.092399	4.53335	9.54332	23.1522	#	C
514	1	3	-0.092399	7.81321	9.8819	16.6511	#	C
515	1	3	-0.092399	4.5408	16.7651	3.40562	#	C
516	1	3	-0.092399	18.1086	16.8782	16.6374	#	C
517	1	3	-0.092399	16.4981	3.35063	4.93165	#	C
518	1	3	-0.092399	16.4444	16.8475	18.413	#	C
519	1	3	-0.092399	9.14129	16.7189	7.86769	#	C
520	1	3	-0.092399	9.27905	23.086	4.81369	#	C
521	1	3	-0.092399	16.4936	22.8927	21.3474	#	C
522	1	3	-0.092399	16.4281	9.5786	7.77069	#	C
523	1	3	-0.092399	2.98259	7.67046	22.9042	#	C
524	1	3	-0.092399	3.0652	4.88942	16.7221	#	C
525	1	3	-0.092399	22.775	21.6195	16.6287	#	C
526	1	3	-0.092399	22.6648	7.78036	3.30799	#	C
527	1	3	-0.092399	22.86	4.87877	9.67846	#	C
528	1	3	-0.092399	22.4009	18.6583	22.666	#	C
529	1	4	0.144167	9.48944	6.01898	23.4694	#	H
530	1	4	0.144167	9.72717	19.3399	9.94681	#	H
531	1	4	0.144167	16.0222	20.5285	23.7134	#	H
532	1	4	0.144167	15.9348	6.95274	10.01	#	H
533	1	4	0.144167	2.68019	20.371	9.81686	#	H
534	1	4	0.144167	16.2556	6.05753	2.83137	#	H
535	1	4	0.144167	16.1572	19.6779	16.5833	#	H
536	1	4	0.144167	2.42343	19.3095	2.85705	#	H
537	1	4	0.144167	9.6174	20.4697	2.60452	#	H
538	1	4	0.144167	9.50398	6.87197	16.7098	#	H
539	1	4	0.144167	23.0459	9.90802	5.96195	#	H
540	1	4	0.144167	23.1079	23.6784	19.2823	#	H
541	1	4	0.144167	9.43934	9.96402	19.5979	#	H
542	1	4	0.144167	23.3011	16.2171	20.4446	#	H
543	1	4	0.144167	23.286	2.80782	7.00093	#	H
544	1	4	0.144167	9.52654	3.03713	20.2639	#	H
545	1	4	0.144167	2.2135	16.1632	5.99772	#	H
546	1	4	0.144167	2.632	2.81701	19.3259	#	H
547	1	4	0.144167	2.49696	9.91169	20.4296	#	H
548	1	4	0.144167	2.5594	23.7026	7.03627	#	H
549	1	4	0.144167	5.81109	23.2985	9.86726	#	H
550	1	4	0.144167	19.1864	23.4359	23.4459	#	H
551	1	4	0.144167	18.8758	10.1901	10.0598	#	H
552	1	4	0.144167	19.8114	23.2276	16.6599	#	H
553	1	4	0.144167	19.8247	9.61717	3.13027	#	H
554	1	4	0.144167	6.52355	23.4745	2.79232	#	H
555	1	4	0.144167	5.97693	3.07881	16.5704	#	H
556	1	4	0.144167	18.957	2.72956	2.74595	#	H
557	1	4	0.144167	20.1758	2.76458	10.0273	#	H
558	1	4	0.144167	6.53531	2.8929	23.4536	#	H
559	1	4	0.144167	5.55929	9.83145	3.1711	#	H
560	1	4	0.144167	18.8676	10.1214	16.0536	#	H
561	1	4	0.144167	20.3819	16.1684	2.69103	#	H
562	1	4	0.144167	6.36652	16.6183	16.6714	#	H
563	1	4	0.144167	6.51129	2.90352	2.95225	#	H
564	1	4	0.144167	4.84816	15.7643	23.8864	#	H
565	1	4	0.144167	5.93909	2.97853	9.78413	#	H
566	1	4	0.144167	19.2331	16.715	9.67585	#	H
567	1	4	0.144167	20.4097	10.2749	23.5589	#	H
568	1	4	0.144167	6.78614	10.1116	10.0756	#	H
569	1	4	0.144167	9.40529	23.2239	20.4668	#	H
570	1	4	0.144167	9.43574	9.86629	6.69936	#	H
571	1	4	0.144167	15.7255	23.7043	5.43296	#	H
572	1	4	0.144167	15.7763	10.1999	19.0406	#	H
573	1	4	0.144167	2.38552	9.92713	5.93213	#	H
574	1	4	0.144167	15.8699	2.73217	20.5285	#	H
575	1	4	0.144167	15.8366	16.0709	7.20609	#	H
576	1	4	0.144167	2.49907	2.63817	7.21576	#	H
577	1	4	0.144167	9.94097	2.53774	5.50306	#	H
578	1	4	0.144167	9.41654	16.5046	19.7936	#	H
579	1	4	0.144167	23.182	5.64504	16.0585	#	H
580	1	4	0.144167	23.6235	18.9215	2.59088	#	H
581	1	4	0.144167	9.58043	5.91663	2.88728	#	H
582	1	4	0.144167	23.2335	20.6813	10.0959	#	H
583	1	4	0.144167	22.9225	6.77835	23.1065	#	H
584	1	4	0.144167	9.63838	6.93972	9.79765	#	H
585	1	4	0.144167	2.4697	5.68018	10.1412	#	H
586	1	4	0.144167	2.2569	19.321	23.5883	#	H
587	1	4	0.144167	2.506	20.4851	16.2501	#	H
588	1	4	0.144167	2.39556	6.84597	3.08957	#	H
589	1	4	0.144167	16.2862	20.1897	3.10046	#	H
590	1	4	0.144167	16.0894	6.90305	16.3456	#	H
591	1	4	0.144167	9.85115	19.2538	16.3751	#	H
592	1	4	0.144167	9.42584	20.2515	23.4857	#	H
593	1	4	0.144167	16.1054	5.99851	23.3804	#	H
594	1	4	0.144167	15.9032	19.4215	9.922	#	H
595	1	4	0.144167	2.53938	16.481	20.3625	#	H
596	1	4	0.144167	2.38582	23.5639	19.2194	#	H
597	1	4	0.144167	23.1755	9.96079	20.3681	#	H
598	1	4	0.144167	22.8973	23.3757	6.68871	#	H
599	1	4	0.144167	23.1316	16.3126	5.97463	#	H
600	1	4	0.144167	23.0259	2.9962	19.3887	#	H
601	1	4	0.144167	19.8873	2.91916	16.466	#	H
602	1	4	0.144167	18.7527	2.709	23.775	#	H
603	1	4	0.144167	20.1136	23.6993	9.95097	#	H
604	1	4	0.144167	6.01737	22.7055	23.0494	#	H
605	1	4	0.144167	5.92528	23.0374	16.9398	#	H
606	1	4	0.144167	19.2844	23.2964	3.01349	#	H
607	1	4	0.144167	20.3216	16.1101	23.532	#	H
608	1	4	0.144167	6.77846	16.2063	10.2077	#	H
609	1	4	0.144167	5.35851	10.0022	23.6464	#	H
610	1	4	0.144167	7.01397	10.3592	16.0857	#	H
611	1	4	0.144167	5.27283	16.2251	2.81597	#	H
612	1	4	0.144167	18.9509	16.3454	16.1879	#	H
613	1	4	0.144167	16.04	2.87277	5.85385	#	H
614	1	4	0.144167	15.9632	16.3877	19.2752	#	H
615	1	4	0.144167	9.53893	16.2778	6.94144	#	H
616	1	4	0.144167	9.79084	23.5172	5.61465	#	H
617	1	4	0.144167	16.1022	23.3127	20.3976	#	H
618	1	4	0.144167	16.0402	10.0055	6.88176	#	H
619	1	4	0.144167	2.56517	6.76705	23.2394	#	H