Created on Tue Sep 29 13:33:59 2020 

        1345 atoms
        1680 bonds
        3552 angles
        3072 dihedrals
        1728 impropers

           6 atom types
           7 bond types
          10 angle types
           3 dihedral types
           1 improper types
           0.000000  54.70508588 xlo xhi
           0.000000  27.42552433 ylo yhi
           0.000000  27.31784132 zlo zhi
           0.000000   0.000000   0.000000 xy xz yz

Masses

    1    15.999400000 # O_2
    2    54.938045000 # Mn8f4
    3    35.453000000 # Cl
    4    12.010700000 # C_R
    5     1.007940000 # H_
    6    153.82 # CCl4

Bond Coeffs

    1      714.557442        1.269010  # O_2 C_R
    2      165.985932        2.236110  # O_2 Mn8f4
    3       41.979120        3.601349  # Mn8f4 Mn8f4
    4      132.684174        2.426055  # Mn8f4 Cl
    5      391.669513        1.458000  # C_R C_R
    6      462.655054        1.379256  # C_R C_R
    7      357.440381        1.081418  # C_R H_

Angle Coeffs

    1              cosine/periodic      124.920423              -1               3 # Mn8f4 O_2 C_R
    2                      fourier       96.210299        0.343737        0.374972        0.281246 # O_2 Mn8f4 O_2
    3                      fourier       41.266205        0.343737        0.374972        0.281246 # O_2 Mn8f4 Mn8f4
    4                      fourier       86.426479        0.343737        0.374972        0.281246 # O_2 Mn8f4 Cl
    5                      fourier       39.478018        0.343737        0.374972        0.281246 # Mn8f4 Mn8f4 Cl
    6              cosine/periodic      204.366560              -1               3 # C_R C_R C_R
    7              cosine/periodic      222.595017              -1               3 # C_R C_R C_R
    8              cosine/periodic      275.428492              -1               3 # O_2 C_R C_R
    9              cosine/periodic      413.556852              -1               3 # O_2 C_R O_2
   10              cosine/periodic      114.578032              -1               3 # C_R C_R H_

Dihedral Coeffs

    1        2.245703              -1               2 # Mn8f4 O_2 C_R O_2
    2        0.555556              -1               2 # C_R C_R C_R O_2
    3        1.497136              -1               2 # C_R C_R C_R C_R

Improper Coeffs

    1        2.000000        1.000000       -1.000000        0.000000               0 # C_R C_R C_R C_R

Pair Coeffs

    1        0.060000        3.118146 # O_2 O_2
    2        0.013000        2.637951 # Mn8f4 Mn8f4
    3        0.227000        3.516377 # Cl Cl
    4        0.105000        3.430851 # C_R C_R
    5        0.044000        2.571134 # H_ H_
    6        0.6498          5.88     # CCl4

Atoms

1	1	1	0	7.01617	4.85801	25.9573
2	1	1	0	6.49431	18.3526	12.3066
3	1	1	0	20.5945	4.36116	12.1083
4	1	1	0	20.3508	18.3311	26.1041
5	1	1	0	18.9024	22.3291	25.9481
6	1	1	0	19.2972	8.23267	12.0724
7	1	1	0	5.41091	22.3933	12.2956
8	1	1	0	5.55173	8.842	25.8821
9	1	1	0	18.9746	4.69834	0.741629
10	1	1	0	19.7601	18.2867	14.5048
11	1	1	0	5.03731	4.36258	14.5748
12	1	1	0	5.76943	18.2933	1.01329
13	1	1	0	7.0774	22.1591	0.844194
14	1	1	0	6.26757	8.40095	14.7092
15	1	1	0	20.495	22.4653	14.5357
16	1	1	0	20.2865	8.68354	0.823282
17	1	1	0	25.3053	7.26063	4.4611
18	1	1	0	25.5004	20.9472	18.2081
19	1	1	0	11.6364	7.19667	18.0498
20	1	1	0	11.7441	20.5886	4.7322
21	1	1	0	25.1172	19.8733	22.295
22	1	1	0	25.4029	5.82655	8.18921
23	1	1	0	11.8446	19.4424	8.78998
24	1	1	0	11.8224	6.36953	22.0354
25	1	1	0	0.446016	19.5872	4.52588
26	1	1	0	0.313584	5.71501	18.4341
27	1	1	0	14.6895	19.7665	17.937
28	1	1	0	14.13	6.25739	4.6208
29	1	1	0	0.480995	7.24663	22.3439
30	1	1	0	0.432395	20.9529	8.52221
31	1	1	0	14.0268	7.10354	8.51518
32	1	1	0	14.2467	20.7631	21.8969
33	1	1	0	3.98898	25.9027	7.06068
34	1	1	0	4.18111	12.1744	20.61
35	1	1	0	17.802	25.947	20.8601
36	1	1	0	17.7322	12.0976	7.25175
37	1	1	0	21.6394	25.9682	19.6321
38	1	1	0	21.717	12.331	5.79681
39	1	1	0	8.09066	25.8968	5.90391
40	1	1	0	8.16489	12.3731	19.3909
41	1	1	0	4.30276	0.953059	19.9465
42	1	1	0	4.13956	14.7598	5.94309
43	1	1	0	17.6565	1.05821	5.88267
44	1	1	0	17.9458	14.4221	19.4171
45	1	1	0	21.6587	0.645073	6.91538
46	1	1	0	21.5757	14.6069	20.9845
47	1	1	0	8.35756	1.09721	20.9418
48	1	1	0	7.92309	14.51	7.3872
49	1	1	0	4.09941	7.19836	0.870108
50	1	1	0	4.2273	21.2648	14.5838
51	1	1	0	18.0222	6.88198	14.5102
52	1	1	0	17.6195	20.8326	0.944395
53	1	1	0	21.5439	19.6577	0.8739
54	1	1	0	21.8983	5.47595	14.3498
55	1	1	0	8.0019	19.8238	14.6434
56	1	1	0	8.03458	6.03344	1.02733
57	1	1	0	4.29958	19.5366	25.9698
58	1	1	0	3.79217	5.67406	12.1695
59	1	1	0	18.0579	19.4821	12.3452
60	1	1	0	17.698	6.19064	25.7142
61	1	1	0	21.764	7.22234	25.8953
62	1	1	0	21.9187	21.2239	12.0831
63	1	1	0	7.68063	7.04228	12.2757
64	1	1	0	8.50097	20.5266	25.7082
65	1	1	0	7.05994	25.8638	22.3509
66	1	1	0	6.3982	12.1955	8.56133
67	1	1	0	20.2398	25.87	8.21692
68	1	1	0	20.439	12.19	22.1927
69	1	1	0	18.827	26.0439	4.35526
70	1	1	0	19.4102	12.0105	18.2089
71	1	1	0	5.6318	26.1479	18.4416
72	1	1	0	5.38773	12.4092	4.50308
73	1	1	0	19.1904	1.06242	22.2164
74	1	1	0	19.2793	14.5749	8.60014
75	1	1	0	5.35139	0.70084	8.34198
76	1	1	0	5.52704	14.4218	22.1323
77	1	1	0	6.53336	0.880462	4.44457
78	1	1	0	6.76515	14.8428	18.2824
79	1	1	0	20.4873	0.604867	18.1213
80	1	1	0	20.2783	14.5062	4.50551
81	1	1	0	25.5368	4.50067	19.6205
82	1	1	0	25.4535	18.3223	5.70651
83	1	1	0	11.5482	4.47072	6.00686
84	1	1	0	12.0475	18.2	19.214
85	1	1	0	25.2423	22.1989	6.86519
86	1	1	0	25.5263	8.55803	20.7886
87	1	1	0	11.9908	22.1844	20.4189
88	1	1	0	11.5307	8.52826	7.34282
89	1	1	0	0.234037	4.48729	7.05051
90	1	1	0	0.557599	18.3025	20.8749
91	1	1	0	14.1413	4.69684	20.6341
92	1	1	0	14.2348	18.1854	7.26524
93	1	1	0	0.654182	22.1598	19.8561
94	1	1	0	0.299804	8.57979	5.86345
95	1	1	0	14.0549	22.085	6.1107
96	1	1	0	13.9793	8.62737	19.0755
97	1	1	0	19.5079	21.8584	1.6522
98	1	1	0	20.0397	7.64801	15.155
99	1	1	0	6.15347	22.1167	15.2215
100	1	1	0	5.91527	8.30408	1.57201
101	1	1	0	6.21565	4.89166	1.49106
102	1	1	0	6.11704	18.9269	15.2723
103	1	1	0	20.0191	4.53607	15.0557
104	1	1	0	19.6784	18.7181	1.60776
105	1	1	0	6.59214	21.3335	24.843
106	1	1	0	5.75221	7.92173	11.564
107	1	1	0	19.9124	22.0442	11.5828
108	1	1	0	19.807	8.04585	25.1584
109	1	1	0	19.5515	5.08973	25.1652
110	1	1	0	19.9116	18.8594	11.4073
111	1	1	0	5.70744	4.62528	11.5761
112	1	1	0	6.11789	18.5684	25.2302
113	1	1	0	1.2339	20.1684	21.9578
114	1	1	0	1.06584	6.37824	7.77404
115	1	1	0	14.9616	20.1365	8.02122
116	1	1	0	14.782	6.67372	21.4536
117	1	1	0	0.845693	6.75789	4.7138
118	1	1	0	1.37	20.2862	18.8844
119	1	1	0	14.7898	6.69406	18.4301
120	1	1	0	14.6028	20.2433	4.99862
121	1	1	0	24.967	6.67299	21.7969
122	1	1	0	24.6684	20.3508	7.93444
123	1	1	0	10.939	6.55038	8.25508
124	1	1	0	11.1765	20.3079	21.2439
125	1	1	0	24.7828	20.1893	4.76551
126	1	1	0	24.6854	6.43405	18.8472
127	1	1	0	11.5849	19.9841	18.0866
128	1	1	0	10.9515	6.44757	5.19912
129	1	1	0	21.3634	1.38572	20.0487
130	1	1	0	21.2465	15.2061	6.35756
131	1	1	0	7.31781	1.51974	6.46215
132	1	1	0	7.73376	15.3685	20.2089
133	1	1	0	4.42271	1.39582	6.47256
134	1	1	0	4.458	15.243	20.3707
135	1	1	0	18.4202	1.69081	20.2033
136	1	1	0	18.4804	15.2866	6.68026
137	1	1	0	21.0851	25.1826	6.25156
138	1	1	0	21.5087	11.5875	20.3544
139	1	1	0	7.90815	25.2647	20.4154
140	1	1	0	7.32438	11.5418	6.69848
141	1	1	0	4.57323	25.5253	20.3141
142	1	1	0	4.33275	11.7247	6.35233
143	1	1	0	17.7853	25.5141	6.23873
144	1	1	0	18.3698	11.4829	20.0976
145	1	1	0	20.9598	20.2773	25.2616
146	1	1	0	21.3507	6.2683	11.2463
147	1	1	0	7.31064	20.2711	11.5089
148	1	1	0	7.8365	6.81993	25.2719
149	1	1	0	4.75491	6.8602	25.202
150	1	1	0	4.40181	20.475	11.6237
151	1	1	0	18.2396	6.34509	11.5078
152	1	1	0	18.1101	20.4431	25.1947
153	1	1	0	21.0895	6.75406	1.54227
154	1	1	0	21.5523	20.5979	15.0453
155	1	1	0	7.24393	6.4997	15.2752
156	1	1	0	7.92552	20.1671	1.5263
157	1	1	0	4.87679	20.2984	1.46465
158	1	1	0	4.31162	6.25913	15.3549
159	1	1	0	18.7217	20.1034	15.2444
160	1	1	0	18.1222	6.61641	1.48045
161	1	1	0	19.5282	1.4535	4.71644
162	1	1	0	19.8914	15.0332	18.5052
163	1	1	0	6.10259	1.60365	18.9508
164	1	1	0	6.12869	15.3187	5.10196
165	1	1	0	6.46133	1.6931	21.9276
166	1	1	0	5.98793	15.3597	8.03291
167	1	1	0	19.8206	1.65332	7.6692
168	1	1	0	19.6781	15.2444	21.8359
169	1	1	0	6.23845	25.0597	5.09473
170	1	1	0	6.17502	11.7056	18.5719
171	1	1	0	19.7218	25.1375	18.9235
172	1	1	0	19.7639	11.6178	4.92481
173	1	1	0	19.6385	25.3689	22.0442
174	1	1	0	19.6965	11.5852	8.2531
175	1	1	0	5.84488	25.2618	7.9755
176	1	1	0	6.08946	11.5892	21.6244
177	1	1	0	1.18197	21.7659	6.59185
178	1	1	0	1.12791	8.14287	20.3516
179	1	1	0	14.9643	21.7278	20.0884
180	1	1	0	14.5557	8.24839	6.66328
181	1	1	0	0.930664	4.80058	20.3729
182	1	1	0	1.18134	18.7034	6.46492
183	1	1	0	14.7244	5.13993	6.46944
184	1	1	0	15.0393	18.6467	19.8423
185	1	1	0	24.8191	21.8251	20.158
186	1	1	0	24.6077	8.0762	6.34886
187	1	1	0	11.2653	21.8938	6.52964
188	1	1	0	11.0253	8.07936	19.9977
189	1	1	0	24.7216	4.86267	6.35787
190	1	1	0	24.6112	18.8594	20.3302
191	1	1	0	11.2348	5.09696	20.3229
192	1	1	0	11.0047	18.6308	6.91521
193	1	2	0	5.09416	5.56049	26.9758
194	1	3	0	3.54952	3.75453	26.7866
195	1	2	0	4.89929	19.4114	13.4995
196	1	3	0	3.09125	17.7774	13.7089
197	1	2	0	18.8354	5.21368	13.3069
198	1	3	0	17.1907	3.62841	13.1748
199	1	2	0	18.5262	19.1973	27.0835
200	1	3	0	16.9609	17.4029	26.6756
201	1	2	0	20.6083	21.4588	27.1243
202	1	3	0	22.273	23.2682	27.1109
203	1	2	0	21.057	7.27824	13.2498
204	1	3	0	23.0855	8.62597	13.285
205	1	2	0	7.18961	21.4692	13.3553
206	1	3	0	8.90198	23.1838	13.1179
207	1	2	0	7.11999	7.75705	27.1161
208	1	3	0	8.88456	9.42273	27.3152
209	1	2	0	20.762	5.54857	26.9824
210	1	3	0	22.5549	3.78719	27.1614
211	1	2	0	21.2095	19.4336	13.1855
212	1	3	0	23.1988	18.114	12.8998
213	1	2	0	6.70545	5.3007	13.5063
214	1	3	0	8.47956	3.79915	13.5582
215	1	2	0	7.43049	19.0403	26.9728
216	1	3	0	8.97216	17.1413	26.758
217	1	2	0	5.44174	21.2651	26.8291
218	1	3	0	3.78649	23.0792	26.5069
219	1	2	0	4.59116	7.39991	13.4237
220	1	3	0	2.86506	8.96947	13.3761
221	1	2	0	18.858	21.3274	13.4546
222	1	3	0	16.8221	22.6258	13.2661
223	1	2	0	18.6297	7.7552	26.9725
224	1	3	0	17.0767	9.7351	26.6656
225	1	2	0	53.8363	5.5251	5.33304
226	1	3	0	53.7794	3.82881	3.64883
227	1	2	0	54.0662	19.2442	19.2341
228	1	3	0	53.8542	17.4876	17.6456
229	1	2	0	12.9864	5.62621	18.9445
230	1	3	0	12.5489	3.83848	17.3658
231	1	2	0	12.9177	19.061	5.71424
232	1	3	0	12.9523	17.2677	3.95623
233	1	2	0	54.0827	21.3703	21.5771
234	1	3	0	54.1594	23.1101	23.3477
235	1	2	0	53.8917	7.6581	7.52383
236	1	3	0	53.819	9.15572	9.40185
237	1	2	0	12.9336	21.1945	7.76389
238	1	3	0	13.0063	22.8118	9.58135
239	1	2	0	13.0067	7.94257	20.9482
240	1	3	0	13.3541	9.96298	22.2715
241	1	2	0	54.0358	21.317	5.44457
242	1	3	0	53.9508	23.0273	3.7177
243	1	2	0	53.9532	7.54656	19.1971
244	1	3	0	54.0505	9.05351	17.258
245	1	2	0	13.2811	21.159	18.8941
246	1	3	0	13.2108	22.8866	17.2013
247	1	2	0	12.6948	7.66785	5.62136
248	1	3	0	12.3773	9.58295	4.15209
249	1	2	0	53.8325	5.64785	21.5132
250	1	3	0	53.5187	4.13886	23.3031
251	1	2	0	54.0016	19.245	7.62805
252	1	3	0	54.0294	17.5789	9.32935
253	1	2	0	12.8201	5.40826	7.61996
254	1	3	0	13.0458	3.793	9.28167
255	1	2	0	13.173	19.113	20.9432
256	1	3	0	13.0347	17.7004	22.8541
257	1	2	0	4.9719	26.9515	5.38309
258	1	3	0	3.31216	26.8839	3.54767
259	1	2	0	5.09687	13.5347	19.1018
260	1	3	0	3.31458	13.545	17.3903
261	1	2	0	18.6662	27.1398	19.1561
262	1	3	0	17.0355	26.9189	17.3178
263	1	2	0	18.6096	13.3761	5.56826
264	1	3	0	16.6309	13.3433	4.15096
265	1	2	0	20.7868	27.236	21.4003
266	1	3	0	22.3794	0.0563314	23.3012
267	1	2	0	20.9037	13.4022	7.63089
268	1	3	0	22.7948	13.5999	9.17651
269	1	2	0	7.0704	26.9979	7.51946
270	1	3	0	8.71799	27.1993	9.33012
271	1	2	0	7.33409	13.4458	21.119
272	1	3	0	9.02469	13.2225	22.8425
273	1	2	0	5.29142	27.1734	21.5487
274	1	3	0	3.64644	27.084	23.3252
275	1	2	0	4.9791	13.5272	7.62457
276	1	3	0	3.08802	13.6538	9.13502
277	1	2	0	18.6199	27.2424	7.45398
278	1	3	0	16.8949	27.3481	9.20828
279	1	2	0	18.7353	13.3879	21.1982
280	1	3	0	16.6903	13.1837	22.7308
281	1	2	0	20.609	27.0707	5.16128
282	1	3	0	22.352	27.0107	3.46957
283	1	2	0	21.0387	13.3656	19.1726
284	1	3	0	22.9278	13.4823	17.6948
285	1	2	0	7.35799	27.2104	19.4399
286	1	3	0	8.95721	27.1083	17.6171
287	1	2	0	7.12776	13.3616	5.55538
288	1	3	0	8.92844	13.0039	3.90628
289	1	4	0	8.21715	4.94318	23.8956
290	1	4	0	7.60399	5.58502	25.0775
291	1	4	0	7.9685	18.2934	10.4282
292	1	4	0	7.26516	19.0088	11.495
293	1	4	0	17.5609	22.3486	23.986
294	1	4	0	18.1107	21.7067	25.1765
295	1	4	0	17.7418	8.31199	10.2195
296	1	4	0	18.4284	7.5988	11.377
297	1	4	0	4.13865	8.78533	24.0082
298	1	4	0	4.73448	8.14796	25.1706
299	1	4	0	17.6359	4.6791	2.72377
300	1	4	0	18.2156	5.36343	1.55365
301	1	4	0	18.0838	18.0427	16.203
302	1	4	0	18.9013	18.8775	15.2712
303	1	4	0	3.90181	4.38179	16.6506
304	1	4	0	4.37151	5.02652	15.451
305	1	4	0	8.23731	22.0972	2.92246
306	1	4	0	7.75005	21.434	1.67565
307	1	4	0	7.86036	8.47996	16.4992
308	1	4	0	7.09701	7.75611	15.4417
309	1	4	0	23.4532	8.73615	4.40578
310	1	4	0	24.5447	8.01687	5.12758
311	1	4	0	9.66339	8.5597	18.0926
312	1	4	0	10.844	7.93241	18.7202
313	1	4	0	23.2381	18.4568	22.2329
314	1	4	0	24.3944	19.0954	21.5912
315	1	4	0	23.5935	4.32107	8.33934
316	1	4	0	24.5218	5.13077	7.55878
317	1	4	0	9.90834	18.0327	8.92769
318	1	4	0	10.9954	18.7124	8.17779
319	1	4	0	2.49327	18.3604	4.51603
320	1	4	0	1.34585	18.9708	5.183
321	1	4	0	16.2111	17.954	17.8001
322	1	4	0	15.2238	18.7676	18.5271
323	1	4	0	15.9804	4.71396	4.51047
324	1	4	0	14.8914	5.4481	5.25289
325	1	4	0	2.34718	8.75259	22.2578
326	1	4	0	1.22456	8.0573	21.6551
327	1	4	0	15.9689	8.47584	8.58007
328	1	4	0	14.8563	7.85023	7.87358
329	1	4	0	3.8311	24.2853	8.75942
330	1	4	0	4.60699	25.2458	7.91404
331	1	4	0	4.13787	10.3805	22.1437
332	1	4	0	4.85405	11.376	21.367
333	1	4	0	21.7204	24.0129	18.2658
334	1	4	0	20.9956	25.0523	18.9832
335	1	4	0	21.7044	10.423	4.37261
336	1	4	0	21.0219	11.4784	5.1024
337	1	4	0	8.27815	23.9387	4.53457
338	1	4	0	7.50528	25.0323	5.18862
339	1	4	0	4.1281	2.88716	18.5739
340	1	4	0	4.88027	1.80585	19.2602
341	1	4	0	4.22442	16.6218	4.50625
342	1	4	0	4.84275	15.4457	5.13663
343	1	4	0	21.9128	2.54699	8.37307
344	1	4	0	21.0788	1.60746	7.56621
345	1	4	0	21.5624	16.6496	22.2418
346	1	4	0	20.8771	15.5012	21.5966
347	1	4	0	8.01351	16.4739	8.74729
348	1	4	0	7.26511	15.3924	8.01892
349	1	4	0	3.82226	8.83188	2.63624
350	1	4	0	4.64775	8.0946	1.63617
351	1	4	0	4.29365	22.3908	16.6369
352	1	4	0	4.93837	21.854	15.4527
353	1	4	0	21.671	18.1986	2.75322
354	1	4	0	20.9357	18.893	1.72802
355	1	4	0	21.944	4.23353	16.3864
356	1	4	0	21.2491	4.8036	15.2148
357	1	4	0	8.21148	4.3979	2.70996
358	1	4	0	7.44545	5.13992	1.6854
359	1	4	0	4.05964	17.9706	24.2022
360	1	4	0	4.86046	18.6844	25.2389
361	1	4	0	3.76635	4.20947	10.2862
362	1	4	0	4.48037	4.89009	11.3645
363	1	4	0	21.8153	8.58173	23.9286
364	1	4	0	21.1044	7.99724	25.1025
365	1	4	0	21.7576	22.3725	10.0688
366	1	4	0	21.1914	21.8525	11.3137
367	1	4	0	7.7746	8.49669	10.3732
368	1	4	0	7.04235	7.77362	11.4381
369	1	4	0	8.62191	24.0545	22.3575
370	1	4	0	7.86617	25.1665	21.6963
371	1	4	0	7.80202	10.2451	8.67039
372	1	4	0	7.20416	11.4595	7.96754
373	1	4	0	17.4294	24.0534	4.46089
374	1	4	0	18.1157	25.2289	5.08427
375	1	4	0	18.049	10.0475	18.2613
376	1	4	0	18.667	11.1964	18.905
377	1	4	0	3.73299	10.6273	4.37696
378	1	4	0	4.44485	11.7125	5.09773
379	1	4	0	17.7792	3.06056	22.099
380	1	4	0	18.5159	1.89341	21.4917
381	1	4	0	17.8007	16.4582	8.68991
382	1	4	0	18.5953	15.406	7.94579
383	1	4	0	3.88538	2.62469	8.43857
384	1	4	0	4.62844	1.56776	7.71058
385	1	4	0	8.04461	2.75038	4.51304
386	1	4	0	7.27064	1.65576	5.18283
387	1	4	0	8.15281	16.7444	18.3526
388	1	4	0	7.54375	15.5781	18.9537
389	1	4	0	23.5243	4.42591	18.2394
390	1	4	0	24.6473	5.14101	18.9349
391	1	4	0	9.59681	4.58703	4.69538
392	1	4	0	10.7564	5.19201	5.3582
393	1	4	0	23.4565	22.3241	8.38806
394	1	4	0	24.5346	21.6025	7.73174
395	1	4	0	10.2824	22.3019	22.1817
396	1	4	0	11.2094	21.5626	21.2571
397	1	4	0	9.66374	8.57898	8.78679
398	1	4	0	10.7663	7.88252	8.0816
399	1	4	0	2.13567	4.35701	8.44884
400	1	4	0	1.10858	5.09557	7.73055
401	1	4	0	15.9647	4.69934	22.1323
402	1	4	0	14.8254	5.39259	21.4647
403	1	4	0	2.49546	22.3995	18.3051
404	1	4	0	1.50688	21.5552	19.1405
405	1	4	0	2.07253	8.79683	4.30922
406	1	4	0	1.00027	7.99737	5.00756
407	1	4	0	16.0165	22.135	4.65447
408	1	4	0	14.8596	21.4217	5.32265
409	1	4	0	17.5645	22.2342	2.87946
410	1	4	0	18.259	21.5916	1.77946
411	1	4	0	18.0738	8.32364	16.4365
412	1	4	0	18.76	7.55743	15.3342
413	1	4	0	8.04816	18.4548	16.5817
414	1	4	0	7.34536	19.1497	15.4471
415	1	4	0	8.63012	22.14	23.9228
416	1	4	0	7.89217	21.2514	24.8311
417	1	4	0	17.541	4.61083	23.9638
418	1	4	0	18.2945	5.30688	25.039
419	1	4	0	17.8932	18.2023	10.3728
420	1	4	0	18.6633	18.9442	11.3852
421	1	4	0	2.35708	18.1227	22.4548
422	1	4	0	1.31169	18.863	21.7527
423	1	4	0	16.1504	18.1829	8.72879
424	1	4	0	15.0094	18.8681	8.01118
425	1	4	0	16.1885	8.51625	17.955
426	1	4	0	14.9468	7.91975	18.5646
427	1	4	0	23.6457	8.59822	22.3103
428	1	4	0	24.8344	7.90883	21.6501
429	1	4	0	23.4274	18.2651	4.43928
430	1	4	0	24.5845	18.962	5.04014
431	1	4	0	10.0543	18.2091	17.9002
432	1	4	0	11.2485	18.8438	18.5098
433	1	4	0	22.0776	2.50004	18.0391
434	1	4	0	21.2401	1.44331	18.7878
435	1	4	0	21.7805	16.4525	4.40204
436	1	4	0	21.0562	15.3152	5.1477
437	1	4	0	3.94563	16.2475	22.4386
438	1	4	0	4.74396	15.3081	21.5981
439	1	4	0	21.7007	24.0111	8.27166
440	1	4	0	20.9288	25.06	7.51628
441	1	4	0	21.9453	10.357	22.2774
442	1	4	0	21.2773	11.4446	21.5793
443	1	4	0	4.17975	24.1843	18.3701
444	1	4	0	4.86383	25.3207	19.1086
445	1	4	0	21.633	18.3146	24.0696
446	1	4	0	20.9831	19.0213	25.1892
447	1	4	0	21.9879	4.26665	10.1472
448	1	4	0	21.2656	5.00478	11.2016
449	1	4	0	3.8669	22.5454	10.4584
450	1	4	0	4.60741	21.7509	11.4949
451	1	4	0	21.6715	8.66775	2.71025
452	1	4	0	21.0688	8.03567	1.55791
453	1	4	0	21.8813	22.4126	16.4742
454	1	4	0	21.3259	21.8043	15.2758
455	1	4	0	4.3196	18.4929	2.86492
456	1	4	0	4.97033	19.048	1.66061
457	1	4	0	17.7078	2.94387	4.44013
458	1	4	0	18.3391	1.75861	5.05594
459	1	4	0	17.9963	16.2835	17.9298
460	1	4	0	18.6325	15.1955	18.6355
461	1	4	0	8.3899	3.0242	22.4361
462	1	4	0	7.69244	1.87702	21.7446
463	1	4	0	8.04113	10.3619	18.0469
464	1	4	0	7.44753	11.5987	18.6431
465	1	4	0	17.7008	24.0353	22.3253
466	1	4	0	18.4295	25.1484	21.7101
467	1	4	0	17.7315	10.1685	8.67958
468	1	4	0	18.4251	11.329	7.97705
469	1	4	0	2.26258	22.4352	8.65797
470	1	4	0	1.21657	21.6938	7.89464
471	1	4	0	16.076	22.233	22.0845
472	1	4	0	15.0612	21.5409	21.3306
473	1	4	0	2.23512	4.35332	18.4451
474	1	4	0	1.11319	4.98636	19.1114
475	1	4	0	23.6293	22.4726	18.1697
476	1	4	0	24.7362	21.7404	18.888
477	1	4	0	9.92247	22.1674	4.63434
478	1	4	0	11.0214	21.5496	5.32276
479	1	4	0	10.0451	4.84763	22.2885
480	1	4	0	11.0605	5.48369	21.4979
481	1	4	0	7.72123	3.65825	23.4901
482	1	5	0	6.85234	3.24219	23.9497
483	1	4	0	7.3881	17.1739	9.85608
484	1	5	0	6.52252	16.6352	10.375
485	1	4	0	21.4201	3.09988	9.56851
486	1	5	0	20.4945	2.72126	10.0014
487	1	4	0	21.0751	17.1527	23.4951
488	1	5	0	20.2707	16.5906	23.9463
489	1	4	0	18.0436	23.5899	23.5548
490	1	5	0	18.7567	24.1094	24.1671
491	1	4	0	18.2536	9.5555	9.77695
492	1	5	0	19.2854	9.82031	10.2285
493	1	4	0	4.45461	23.6897	9.91543
494	1	5	0	5.21126	24.283	10.4487
495	1	4	0	4.68633	9.9123	23.3784
496	1	5	0	5.42089	10.5122	23.9471
497	1	4	0	18.3252	3.65441	3.32833
498	1	5	0	19.3462	3.33633	2.97973
499	1	4	0	18.5709	16.8475	16.7905
500	1	5	0	19.5278	16.4593	16.5096
501	1	4	0	4.53813	3.31179	17.2828
502	1	5	0	5.32548	2.81553	16.8199
503	1	4	0	4.92616	17.3852	3.54989
504	1	5	0	5.99331	17.2317	3.4231
505	1	4	0	7.70525	23.2982	3.43624
506	1	5	0	6.89835	23.783	2.898
507	1	4	0	7.3955	9.74227	16.9361
508	1	5	0	6.39547	10.0601	16.6738
509	1	4	0	21.1555	23.3949	17.1297
510	1	5	0	20.2075	23.8158	16.6863
511	1	4	0	21.0342	9.7463	3.32471
512	1	5	0	20.03	10.0334	3.00496
513	1	4	0	22.9592	8.17733	3.20707
514	1	5	0	23.5463	7.44129	2.69914
515	1	4	0	23.127	21.9488	16.9617
516	1	5	0	23.6283	21.1328	16.4182
517	1	4	0	8.92248	7.85795	17.2031
518	1	5	0	9.27066	6.87554	16.8154
519	1	4	0	9.36923	21.5137	3.56147
520	1	5	0	9.65686	20.5471	3.34722
521	1	4	0	22.6847	18.949	23.4063
522	1	5	0	23.1187	19.8644	23.8669
523	1	4	0	23.1241	4.78357	9.58354
524	1	5	0	23.8212	5.35908	10.213
525	1	4	0	9.24664	18.6992	10.0244
526	1	5	0	9.75084	19.4601	10.5485
527	1	4	0	9.35197	5.51177	23.3014
528	1	5	0	9.68885	6.45463	23.655
529	1	4	0	3.11554	18.9925	3.35598
530	1	5	0	2.64233	19.7925	2.82922
531	1	4	0	2.59443	4.7108	17.15
532	1	5	0	2.07717	5.47605	16.6331
533	1	4	0	16.9041	18.5667	16.7114
534	1	5	0	16.4519	19.4355	16.233
535	1	4	0	16.4236	5.19012	3.26665
536	1	5	0	16.064	6.09724	2.83781
537	1	4	0	2.86423	8.26162	23.5177
538	1	5	0	2.41284	7.42887	24.0466
539	1	4	0	2.81808	21.9125	9.78109
540	1	5	0	2.52322	20.9206	10.1702
541	1	4	0	16.6036	7.78139	9.59953
542	1	5	0	16.2595	6.80821	9.91415
543	1	4	0	16.4937	21.7397	23.3189
544	1	5	0	16.0762	20.8257	23.7239
545	1	4	0	2.80869	23.5599	8.11458
546	1	5	0	2.5181	23.8959	7.11544
547	1	4	0	3.0089	9.73541	21.557
548	1	5	0	2.60769	10.1051	20.6752
549	1	4	0	16.6666	23.4154	21.5872
550	1	5	0	16.507	23.7196	20.5459
551	1	4	0	16.4874	9.7091	8.15581
552	1	5	0	16.0896	10.2454	7.26962
553	1	4	0	22.8871	23.5107	18.8381
554	1	5	0	23.2314	23.8449	19.8603
555	1	4	0	22.9079	9.94355	4.8553
556	1	5	0	23.3187	10.3832	5.73937
557	1	4	0	9.42847	23.4525	5.04292
558	1	5	0	9.98039	23.9835	5.80819
559	1	4	0	9.21798	9.7586	18.6069
560	1	5	0	9.72227	10.2391	19.3504
561	1	4	0	2.92762	3.3802	19.1428
562	1	5	0	2.5375	3.0048	20.0916
563	1	4	0	3.02359	17.1773	5.0424
564	1	5	0	2.57786	16.6888	5.92763
565	1	4	0	16.567	3.55464	5.06083
566	1	5	0	16.1958	3.18095	6.00388
567	1	4	0	16.7277	16.7835	18.3929
568	1	5	0	16.1963	16.1769	19.0983
569	1	4	0	23.0309	3.12863	7.73313
570	1	5	0	23.5178	2.66637	6.82794
571	1	4	0	22.6897	17.2644	21.669
572	1	5	0	23.241	16.8255	20.8636
573	1	4	0	9.56735	3.57255	21.8595
574	1	5	0	10.0755	2.97193	21.0675
575	1	4	0	9.30765	16.8791	8.35603
576	1	5	0	9.78035	16.3546	7.55382
577	1	4	0	2.66407	8.24934	3.12588
578	1	5	0	2.17456	7.45757	2.58142
579	1	4	0	3.04639	21.892	17.0673
580	1	5	0	2.55198	21.0785	16.5353
581	1	4	0	16.8241	7.8658	16.8749
582	1	5	0	16.4134	6.87936	16.4117
583	1	4	0	16.4392	21.6157	3.49102
584	1	5	0	16.2301	20.5893	3.26877
585	1	4	0	22.8552	18.7401	3.2359
586	1	5	0	23.268	19.6137	2.67795
587	1	4	0	22.9712	4.92223	17.021
588	1	5	0	23.4578	5.65125	16.4509
589	1	4	0	9.40772	18.7851	16.852
590	1	5	0	9.96037	19.5589	16.3141
591	1	4	0	9.30122	4.96881	3.35844
592	1	5	0	9.7905	5.83915	2.90167
593	1	4	0	2.94245	18.5825	23.6445
594	1	5	0	2.42782	19.3358	24.2155
595	1	4	0	2.63858	4.8658	9.65562
596	1	5	0	2.28762	5.85138	10.0119
597	1	4	0	16.7789	18.7823	9.81484
598	1	5	0	16.5356	19.7715	10.1211
599	1	4	0	16.4554	5.24754	23.3074
600	1	5	0	16.0059	6.16571	23.706
601	1	4	0	23.0122	8.04547	23.4311
602	1	5	0	23.4019	7.13585	23.8646
603	1	4	0	22.8578	21.751	9.50324
604	1	5	0	23.1899	20.7868	9.92465
605	1	4	0	8.9697	7.9522	9.81713
606	1	5	0	9.45899	7.07365	10.2246
607	1	4	0	9.75139	21.6824	23.2806
608	1	5	0	10.2322	20.773	23.6283
609	1	4	0	8.0652	23.4004	23.4822
610	1	5	0	7.1014	23.7103	23.858
611	1	4	0	7.16959	9.63971	9.77657
612	1	5	0	6.30598	10.1307	10.2407
613	1	4	0	21.2674	23.5403	9.49274
614	1	5	0	20.5384	24.0789	10.0217
615	1	4	0	21.2878	9.7484	23.3527
616	1	5	0	20.3109	10.1856	23.7238
617	1	4	0	17.9927	23.5171	3.27852
618	1	5	0	18.7482	24.0919	2.72922
619	1	4	0	18.6493	9.47959	17.1169
620	1	5	0	19.52	9.92069	16.6966
621	1	4	0	4.81214	23.5467	17.294
622	1	5	0	5.77337	23.8901	16.9794
623	1	4	0	4.33309	10.0224	3.26084
624	1	5	0	5.30577	10.4287	2.90749
625	1	4	0	18.1627	3.527	23.3582
626	1	5	0	18.9778	2.98456	23.8709
627	1	4	0	18.4333	17.0982	9.81099
628	1	5	0	19.3479	16.6267	10.199
629	1	4	0	4.37422	3.12486	9.63432
630	1	5	0	5.38057	2.85509	9.92052
631	1	4	0	4.50086	16.71	23.6559
632	1	5	0	5.39819	16.1871	24.0103
633	1	4	0	7.6335	3.21781	3.23941
634	1	5	0	7.04584	2.62594	2.56261
635	1	4	0	7.48658	17.3378	17.2223
636	1	5	0	6.47721	16.9919	16.9381
637	1	4	0	21.5133	2.99579	16.8529
638	1	5	0	20.7743	2.4419	16.2577
639	1	4	0	21.2234	16.9539	3.22677
640	1	5	0	20.2888	16.5285	2.87048
641	1	4	0	23.0147	3.27682	18.7667
642	1	5	0	23.3969	2.91984	19.7113
643	1	4	0	22.8622	17.0717	4.98914
644	1	5	0	23.264	16.6515	5.9423
645	1	4	0	9.11443	3.39316	5.15927
646	1	5	0	9.35204	3.1233	6.15726
647	1	4	0	9.47706	17.0845	18.5826
648	1	5	0	10.1227	16.3497	19.0044
649	1	4	0	22.8067	23.3685	7.66844
650	1	5	0	23.2156	23.7476	6.7856
651	1	4	0	23.2074	9.84527	21.8249
652	1	5	0	23.7846	10.2784	21.0016
653	1	4	0	9.76805	23.5056	21.7334
654	1	5	0	10.1001	23.9382	20.8292
655	1	4	0	9.06431	9.69763	8.17656
656	1	5	0	9.63803	10.3254	7.49955
657	1	4	0	2.73525	3.18743	7.86163
658	1	5	0	2.23794	2.7659	7.02262
659	1	4	0	2.89554	16.9584	21.8368
660	1	5	0	2.30325	16.5148	20.9972
661	1	4	0	16.6771	3.63587	21.4468
662	1	5	0	16.3781	3.32001	20.4016
663	1	4	0	16.6517	17.0222	8.14699
664	1	5	0	16.2003	16.5141	7.3034
665	1	4	0	2.98201	23.5462	18.878
666	1	5	0	2.62386	23.8439	19.8304
667	1	4	0	2.65582	9.90543	4.95172
668	1	5	0	2.23298	10.2422	5.92996
669	1	4	0	16.5448	23.2961	5.19071
670	1	5	0	16.123	23.6463	6.14803
671	1	4	0	16.7605	9.58712	18.5979
672	1	5	0	16.1923	9.99633	19.428
673	1	1	0	34.1273	4.86933	25.7936
674	1	1	0	34.0355	18.665	12.177
675	1	1	0	47.79	4.47289	12.1158
676	1	1	0	47.9475	18.1905	26.018
677	1	1	0	46.5776	22.2965	25.9689
678	1	1	0	46.6153	8.415	12.16
679	1	1	0	32.7278	22.2647	12.0662
680	1	1	0	32.808	8.6008	25.7451
681	1	1	0	46.6135	5.00323	1.11833
682	1	1	0	46.7264	18.6089	14.6274
683	1	1	0	32.5072	4.63	14.3061
684	1	1	0	33.0096	18.2664	0.972259
685	1	1	0	34.1269	22.2619	0.888535
686	1	1	0	33.9884	8.38834	14.674
687	1	1	0	48.0192	22.4745	14.7243
688	1	1	0	47.4156	8.86645	1.06643
689	1	1	0	52.6177	7.25464	4.51915
690	1	1	0	52.9347	21.0357	18.4714
691	1	1	0	39.2723	7.37176	18.2817
692	1	1	0	39.2459	21.0405	4.78932
693	1	1	0	53.0431	19.5079	22.3354
694	1	1	0	52.8606	5.9122	8.47199
695	1	1	0	39.1941	19.7408	8.59916
696	1	1	0	39.1006	6.21048	22.2378
697	1	1	0	27.7908	19.6002	4.38768
698	1	1	0	27.6968	5.8097	18.1867
699	1	1	0	41.6426	19.8294	18.2983
700	1	1	0	41.5849	6.10568	4.62501
701	1	1	0	27.9913	7.19613	22.1482
702	1	1	0	27.7534	20.7843	8.34948
703	1	1	0	41.3256	7.42252	8.73379
704	1	1	0	41.5104	20.8844	22.201
705	1	1	0	31.43	25.9141	7.04023
706	1	1	0	31.6337	12.1801	20.6916
707	1	1	0	45.0576	26.0104	20.8892
708	1	1	0	45.112	12.527	7.60666
709	1	1	0	49.1216	25.8307	20.0556
710	1	1	0	49.062	12.2739	6.2661
711	1	1	0	35.3817	25.8811	5.98042
712	1	1	0	35.4836	12.2682	19.4427
713	1	1	0	31.5718	0.989482	19.6532
714	1	1	0	31.866	15.3316	6.54531
715	1	1	0	45.0959	0.924467	5.89876
716	1	1	0	45.3106	14.6225	19.2896
717	1	1	0	49.3176	0.718598	7.17852
718	1	1	0	49.2826	14.7421	20.7273
719	1	1	0	35.594	0.874533	21.0016
720	1	1	0	35.1168	15.3088	6.682
721	1	1	0	31.4432	7.36881	0.948699
722	1	1	0	31.4147	21.0057	14.6211
723	1	1	0	45.2224	7.13641	14.6435
724	1	1	0	45.2113	20.7109	1.01459
725	1	1	0	49.0995	19.7089	1.08639
726	1	1	0	49.3068	5.55559	14.329
727	1	1	0	35.4877	19.9121	14.4345
728	1	1	0	35.4767	6.15956	0.952236
729	1	1	0	31.5693	19.5609	25.9321
730	1	1	0	31.4721	5.9705	12.0267
731	1	1	0	45.1783	20.2078	12.1812
732	1	1	0	45.1392	5.91068	26.2147
733	1	1	0	49.1239	7.57378	26.0184
734	1	1	0	49.2848	20.9398	11.9657
735	1	1	0	35.4559	7.06671	12.2167
736	1	1	0	35.4492	20.8459	25.9227
737	1	1	0	34.1188	25.8627	22.3672
738	1	1	0	33.5825	11.8611	8.46338
739	1	1	0	47.8125	25.9018	8.2751
740	1	1	0	47.8144	12.569	22.1195
741	1	1	0	46.6617	25.9558	4.49614
742	1	1	0	46.7765	12.2646	18.1161
743	1	1	0	32.9807	25.8882	18.4302
744	1	1	0	33.4572	11.453	5.52845
745	1	1	0	46.5867	1.03672	22.589
746	1	1	0	46.5709	14.8197	8.77503
747	1	1	0	32.6516	0.815523	8.54531
748	1	1	0	32.8048	14.493	21.9911
749	1	1	0	34.0125	1.1642	4.65742
750	1	1	0	34.2282	14.6099	18.1037
751	1	1	0	47.7027	0.890593	18.3297
752	1	1	0	47.5484	14.7054	4.79721
753	1	1	0	52.7852	4.56299	19.7618
754	1	1	0	52.9458	18.2559	5.89393
755	1	1	0	39.3713	4.79509	5.86112
756	1	1	0	39.2357	18.286	19.385
757	1	1	0	53.0079	22.2655	7.16508
758	1	1	0	52.648	8.52405	20.7614
759	1	1	0	39.2872	22.2099	21.0033
760	1	1	0	38.9257	8.58785	6.95822
761	1	1	0	27.7777	4.71625	6.96498
762	1	1	0	27.655	18.2515	21.0012
763	1	1	0	41.5708	4.64105	20.7782
764	1	1	0	41.4081	18.3562	7.4148
765	1	1	0	27.7754	22.3125	19.6511
766	1	1	0	27.8105	8.48212	5.89926
767	1	1	0	41.6032	22.3064	6.02124
768	1	1	0	41.7359	8.7546	19.7393
769	1	1	0	47.1138	21.6108	1.73917
770	1	1	0	47.1957	7.88629	15.3464
771	1	1	0	33.3933	21.7947	15.2575
772	1	1	0	33.3794	8.38253	1.49243
773	1	1	0	33.6144	5.04856	1.59567
774	1	1	0	33.608	18.9112	15.18
775	1	1	0	47.4695	4.9812	15.2383
776	1	1	0	47.265	18.6396	1.63389
777	1	1	0	33.5718	21.8197	25.2761
778	1	1	0	33.5474	7.91462	11.51
779	1	1	0	47.4723	22.1574	11.6734
780	1	1	0	47.1485	8.12957	25.1874
781	1	1	0	47.0018	5.13765	25.3145
782	1	1	0	47.0429	19.1064	11.5273
783	1	1	0	33.3644	5.07548	11.3578
784	1	1	0	33.4217	18.4384	25.3128
785	1	1	0	28.3599	20.1227	21.9525
786	1	1	0	28.2778	6.5621	8.13184
787	1	1	0	42.2998	20.2593	8.14751
788	1	1	0	42.226	6.49182	21.7975
789	1	1	0	28.3839	6.72376	4.73144
790	1	1	0	28.4488	20.3342	18.8081
791	1	1	0	42.3628	6.82597	18.8207
792	1	1	0	42.2589	20.4024	5.14175
793	1	1	0	51.8999	6.7374	21.7767
794	1	1	0	52.1862	20.3764	7.9883
795	1	1	0	38.3559	6.58169	7.86087
796	1	1	0	38.4348	20.2557	21.7183
797	1	1	0	52.1947	20.1005	5.04812
798	1	1	0	52.0927	6.35185	18.6806
799	1	1	0	38.4741	20.1977	18.6069
800	1	1	0	38.6055	6.63336	4.91764
801	1	1	0	48.4931	1.67131	20.2365
802	1	1	0	48.8162	15.1223	6.5806
803	1	1	0	35.1607	1.5354	6.51899
804	1	1	0	35.0809	15.3167	20.0343
805	1	1	0	31.7302	1.48559	6.61712
806	1	1	0	31.9151	15.3025	20.1918
807	1	1	0	45.6546	1.5634	20.6427
808	1	1	0	45.5844	15.4391	6.89348
809	1	1	0	48.8615	25.3717	6.37372
810	1	1	0	48.9205	11.8145	20.2761
811	1	1	0	35.1096	25.3305	20.4914
812	1	1	0	35.5025	12.4126	7.46492
813	1	1	0	31.8099	25.4491	20.2845